Defaulted container "qmcpack" out of: qmcpack, flux-view (init)
#!/bin/bash
set -euo pipefail
mkdir -p /tmp/output
flux resource list
for i in {1..1}
do
  echo "FLUX-RUN START qmcpack-iter-$i"
  flux run --setattr=user.study_id=qmcpack-iter-$i -N2 -n 126 -o cpu-affinity=per-task -o gpu-affinity=off    qmcpack NiO-fcc-S8-dmc-strongscale.xml |& tee /tmp/qmcpack.out
    echo "FLUX-RUN END qmcpack-iter-$i"
done


output=./results/${app}
(apt-get update && apt-get install -y jq) || (yum update -y && yum install -y jq)
mkdir -p $output
for jobid in $(flux jobs -a --json | jq -r .jobs[].id); do
    echo
    study_id=$(flux job info $jobid jobspec | jq -r ".attributes.user.study_id")
    echo "FLUX-JOB START ${jobid} ${study_id}"
    echo "FLUX-JOB-JOBSPEC START"
    flux job info $jobid jobspec
    echo "FLUX-JOB-JOBSPEC END" 
    
    echo "FLUX-JOB-RESOURCES START"
    flux job info ${jobid} R
    echo "FLUX-JOB-RESOURCES END"
    echo "FLUX-JOB-EVENTLOG START" 
    flux job info $jobid guest.exec.eventlog
    echo "FLUX-JOB-EVENTLOG END" 
    echo "FLUX-JOB END ${jobid} ${study_id}"
done
echo "FLUX JOB STATS"
flux job stats         

     STATE NNODES   NCORES    NGPUS NODELIST
      free      2      176        0 qmcpack-[0-1]
 allocated      0        0        0 
      down      0        0        0 
FLUX-RUN START qmcpack-iter-1
WARNING: MPI environment inconsistency?
running program qmcpack compiled with Open MPI v4.1.2 but allocated with PMI (Hydra or MPICH) (np = 126). Try running with `mpirun.openmpi` or load OpenMPI module.

  Input file(s): NiO-fcc-S8-dmc-strongscale.xml 

=====================================================
                    QMCPACK 3.16.0

       (c) Copyright 2003-  QMCPACK developers

                    Please cite:
 J. Kim et al. J. Phys. Cond. Mat. 30 195901 (2018)
      https://doi.org/10.1088/1361-648X/aab9c3
=====================================================
  Global options 

  Total number of MPI ranks = 126
  Number of MPI groups      = 1
  MPI group ID              = 0
  Number of ranks in group  = 126
  MPI ranks per node        = 63
  OMP 1st level threads     = 1
  OMP nested threading disabled or only 1 thread on the 2nd level

  Precision used in this calculation, see definitions in the manual:
  Base precision      = float
  Full precision      = double

  CPU only build
  Real build. QMC_COMPLEX=OFF
  Timer build option is enabled. Current timer level is coarse

=================================================
--- Memory usage report : when QMCPACK starts ---
=================================================
Available memory on node 0, free + buffers :  325226 MiB
Memory footprint by rank 0 on node 0       :      26 MiB
=================================================

  Input XML = NiO-fcc-S8-dmc-strongscale.xml

  Project = NiO-fcc-S8-dmc
  date    = 2025-04-28 01:06:46 UTC
  host    = qmcpack-0


 Random Number
 -------------
  Offset for the random number seeds from input file (mod 1024): 2

  Range of prime numbers to use as seeds over processors and threads = 7-733


 Lattice
 -------
  Simulation cell radius   = 5.572780 bohr
  Wigner-Seitz cell radius = 5.572779 bohr

  Overwriting global supercell 
  Long-range breakup parameters:
    rc*kc = 15.000000; rc = 5.572779; kc = 2.691655; tol = 0.000300
  KContainer initialised with cutoff 2.691655
   # of K-shell  = 47
   # of K points = 656

  Lattice (bohr):      7.8811001778      7.8811001778      0.0000000000
                      -7.8811001778      7.8811001778      0.0000000000
                       0.0000000000      0.0000000000     15.7622003555

  Boundary Conditions:  p  p  p 

  Volume (bohr^3) = 1958.0354003906

  Reciprocal vectors without 2*pi.
    g_1 =       0.0634429157      0.0634429157     -0.0000000000
    g_2 =      -0.0634429157      0.0634429157      0.0000000000
    g_3 =       0.0000000000     -0.0000000000      0.0634429157

  Metric tensor in real-space.
    h_1 = 124.2234802246 0.0000001003 0.0000000000 
    h_2 = 0.0000001003 124.2234802246 0.0000000000 
    h_3 = 0.0000000000 0.0000000000 248.4469604492 

  Metric tensor in g-space.
    h_1 = 0.3178015351 -0.0000000056 0.0000000000 
    h_2 = -0.0000000056 0.3178015351 0.0000000000 
    h_3 = 0.0000000000 0.0000000000 0.1589007676 

 Particle Set
 ------------
  Name: i   Offload : no

  All the species have the same mass 1.0000000000

  Creating Structure Factor for periodic systems 2.6916551590
  Particle set size: 32   Groups : 2


 Particle Set
 ------------
  Name: e   Offload : no

  All the species have the same mass 1.0000000000

  Creating Structure Factor for periodic systems 2.6916551590
  Particle set size: 384   Groups : 2


 Many-body wavefunction
 -------------------
  Name: psi0   Tasking: no

WARNING !!!!!!! Deprecated input style: creating SPO set inside determinantset. Support for this usage will soon be removed. SPO sets should be built outside using sposet_collection.
  Created SPOSet builder named 'einspline' of type einspline

   Single Slater determinant
   -------------------------

     Determinant
     -----------
      Name: updet   Spin group: 0   SPO name: updet

WARNING !!!!!!! Deprecated input style: creating SPO set inside determinantset. Support for this usage will soon be removed. SPO sets should be built outside using sposet_collection.
      Create a new SPO set updet

     Single particle orbitals (SPO)
     ------------------------------
      Name: updet   Type: spline   Builder class name: EinsplineSetBuilder

	  MIXED_PRECISION=1 Overwriting the einspline storage to single precision.
  TileMatrix = 
 [  1  1  1
    0  2 -2
    1 -1 -1 ]
  Reading 192 orbitals from HDF5 file.
  HDF5 orbital file version 2.1.0
  Reading orbital file in ESHDF format.
  ESHDF orbital file version 2.1.0
  Lattice = 
    [  3.940550  3.940550  7.881100
       0.000000  3.940550 -3.940550
       3.940550  0.000000 -3.940550 ]
  SuperLattice = 
    [  7.881100  7.881100  0.000000
      -7.881100  7.881100  0.000000
       0.000000  0.000000 15.762200 ]

bands=29, elecs=384, spins=2, twists=8, muffin tins=0, core states=0
atomic orbital=0
Atom type(0) = 8
Atom type(1) = 8
Atom type(2) = 28
Atom type(3) = 28
   Skip initialization of the density
TIMER  EinsplineSetBuilder::ReadOrbitalInfo 0.0026807070
TIMER  EinsplineSetBuilder::BroadcastOrbitalInfo 0.0004246740
Found 1 distinct supercell twists.
number of things
8
8
Super twist #0:  [   0.00000   0.00000   0.00000 ]
WARNING twist attribute exists. twistnum attribute ignored. To prevent this message, remove twistnum from input.
  Using supercell twist 0:  [   0.00000   0.00000   0.00000]
Using 1 copies of twist angle [ 0.000,  0.000,  0.000]
Using 2 copies of twist angle [ 0.000,  0.250, -0.250]
Using 1 copies of twist angle [ 0.000,  0.500,  0.500]
Using 1 copies of twist angle [ 0.500,  0.000,  0.500]
Using 2 copies of twist angle [ 0.500,  0.250,  0.250]
Using 1 copies of twist angle [ 0.500,  0.500,  0.000]
Using complex splines.
174 complex-valued orbitals supplied by h5 can be expanded up to 232 SPOs.
Sorting the bands now:
  Occupying bands based on energy in mode "ground"
We will read 144 distinct complex-valued orbitals from h5.
There are 0 core states and 144 valence states.
    Using real valued spline SPOs with complex single precision storage (C2R).
    Running on CPU.
BandInfoGroup::selectBands bigspace has 174 distinct orbitals 
BandInfoGroup::selectBands using distinct orbitals [0,144)
  Number of distinct bands 144
  First Band index 0
  First SPO index 0
  Size of SPOs 192
  ClassName = SplineC2R
  Using complex einspline table
NumDistinctOrbitals 144 numOrbs = 192
B-spline mesh factor is 0.9000000000
B-spline mesh size is (112, 66, 66)
Maxmimum number of Gvecs 35419
  Using meshsize=               112                66                66
  vs input meshsize=               112                66                66
MEMORY 601 MB allocated for the coefficients in 3D spline orbital representation
Start transforming plane waves to 3D B-Splines.
  Time to gather the table = 5.4766369140
  Time to bcast the table = 0.2346991850
  SplineSetReader initialize_spline_pio 6.6952373790 sec
Time spent in creating B-spline SPOs 7.1060947470sec
      Using rank-32 delayed update
      Using walker batching.
      Running OpenMP offload code path on CPU. Only SM1 update is supported. delay_rank is ignored.


     Determinant
     -----------
      Name: downdet   Spin group: 1   SPO name: downdet

WARNING !!!!!!! Deprecated input style: creating SPO set inside determinantset. Support for this usage will soon be removed. SPO sets should be built outside using sposet_collection.
      Create a new SPO set downdet

     Single particle orbitals (SPO)
     ------------------------------
      Name: downdet   Type: spline   Builder class name: EinsplineSetBuilder

	  MIXED_PRECISION=1 Overwriting the einspline storage to single precision.
174 complex-valued orbitals supplied by h5 can be expanded up to 232 SPOs.
Sorting the bands now:
  Occupying bands based on energy in mode "ground"
We will read 144 distinct complex-valued orbitals from h5.
There are 0 core states and 144 valence states.
BandInfoGroup::selectBands bigspace has 174 distinct orbitals 
BandInfoGroup::selectBands using distinct orbitals [0,144)
  Number of distinct bands 144
  First Band index 0
  First SPO index 0
  Size of SPOs 192
  ClassName = SplineC2R
  Using complex einspline table
NumDistinctOrbitals 144 numOrbs = 192
B-spline mesh factor is 0.9000000000
B-spline mesh size is (112, 66, 66)
Maxmimum number of Gvecs 35419
  Using meshsize=               112                66                66
  vs input meshsize=               112                66                66
MEMORY 601 MB allocated for the coefficients in 3D spline orbital representation
Start transforming plane waves to 3D B-Splines.
  Time to gather the table = 5.5726153430
  Time to bcast the table = 0.2799649420
  SplineSetReader initialize_spline_pio 6.7688108600 sec
Time spent in creating B-spline SPOs 7.1378163950sec
      Using rank-32 delayed update
      Using walker batching.
      Running OpenMP offload code path on CPU. Only SM1 update is supported. delay_rank is ignored.

  Added a fermionic WaveFunctionComponent SlaterDet

   Jastrow
   -------
    Name: J2   Type: Two-Body   Function: Bspline

    Radial function for species: u - u
     Number of parameters: 10
     Cusp: -0.2500000000
     Cutoff radius: 5.5727791786

     Name                        Value Type Recompute Use Index
     ---- ---------------------------- ---- --------- --- -----
     uu_0                 2.862236e-01    1         1  ON     0
     uu_1                 1.947737e-01    1         1  ON     1
     uu_2                 1.319545e-01    1         1  ON     2
     uu_3                 8.893394e-02    1         1  ON     3
     uu_4                 5.695576e-02    1         1  ON     4
     uu_5                 3.565959e-02    1         1  ON     5
     uu_6                 2.206950e-02    1         1  ON     6
     uu_7                 1.296086e-02    1         1  ON     7
     uu_8                 6.601007e-03    1         1  ON     8
     uu_9                 2.787144e-03    1         1  ON     9

    Radial function for species: u - d
     Number of parameters: 10
     Cusp: -0.5
     Cutoff radius: 5.57278

     Name                        Value Type Recompute Use Index
     ---- ---------------------------- ---- --------- --- -----
     ud_0                 3.689310e-01    1         1  ON     0
     ud_1                 2.226722e-01    1         1  ON     1
     ud_2                 1.484297e-01    1         1  ON     2
     ud_3                 9.617039e-02    1         1  ON     3
     ud_4                 5.918787e-02    1         1  ON     4
     ud_5                 3.660856e-02    1         1  ON     5
     ud_6                 2.262412e-02    1         1  ON     6
     ud_7                 1.322280e-02    1         1  ON     7
     ud_8                 6.736329e-03    1         1  ON     8
     ud_9                 2.871931e-03    1         1  ON     9


   Jastrow
   -------
    Name: J1   Type: One-Body   Function: Bspline

    Radial function for element: O - e
     Number of parameters: 10
     Cusp: 0
     Cutoff radius: 4.82617

     Name                        Value Type Recompute Use Index
     ---- ---------------------------- ---- --------- --- -----
      O_0                -2.249113e-01    1         1  ON     0
      O_1                -1.847495e-01    1         1  ON     1
      O_2                -1.154814e-01    1         1  ON     2
      O_3                -4.000123e-02    1         1  ON     3
      O_4                 1.731711e-02    1         1  ON     4
      O_5                 5.360132e-02    1         1  ON     5
      O_6                 5.983041e-02    1         1  ON     6
      O_7                 3.956000e-02    1         1  ON     7
      O_8                 1.739980e-02    1         1  ON     8
      O_9                 5.162164e-03    1         1  ON     9

    Radial function for element: Ni - e
     Number of parameters: 10
     Cusp: 0
     Cutoff radius: 4.82617

     Name                        Value Type Recompute Use Index
     ---- ---------------------------- ---- --------- --- -----
     Ni_0                -1.644855e+00    1         1  ON     0
     Ni_1                -1.470659e+00    1         1  ON     1
     Ni_2                -1.078894e+00    1         1  ON     2
     Ni_3                -6.878964e-01    1         1  ON     3
     Ni_4                -3.907005e-01    1         1  ON     4
     Ni_5                -1.962104e-01    1         1  ON     5
     Ni_6                -8.512755e-02    1         1  ON     6
     Ni_7                -2.752357e-02    1         1  ON     7
     Ni_8                -4.017983e-03    1         1  ON     8
     Ni_9                 7.665934e-04    1         1  ON     9

  Adding psi0 TrialWaveFunction to the pool

 Hamiltonian and observables
 ---------------------------
  Name: h0

  QMCHamiltonian::addOperator Kinetic to H, physical Hamiltonian 

   Pseudo Potential
   ----------------
    Name: PseudoPot   Wavefunction : psi0


  Adding pseudopotential for O
   Linear grid  ri=0 rf=10 npts = 10001
    ECPComponentBuilder::buildSemiLocalAndLocal 
WARNING Nrule was not determined from qmcpack input or pseudopotential file. Setting sensible default.
    Assuming Hartree unit
 l-local setting found in pseudopotential file and used.
   Number of angular momentum channels 2
   Maximum angular momentum channel (Lmax) 1
   Creating a Linear Grid Rmax=0.927291
  Using global grid with delta = 0.001
   Making L=0 a local potential with a radial cutoff of 9.999
  Quadrature Nrule: 4
    Non-local pseudopotential parameters
    Maximum angular momentum = 1
    Number of non-local channels = 1
       l(0)=1
    Cutoff radius = 0.928
    Number of spherical integration grid points = 12
    Spherical grid and weights: 
                        1                 0                 0       0.08333333582
                       -1   1.224646853e-16                 0       0.08333333582
             0.4472135901      0.8944271803                 0       0.08333333582
            -0.4472135901      0.7236068249      0.5257310867       0.08333333582
             0.4472135901      0.2763932049      0.8506507874       0.08333333582
            -0.4472135901     -0.2763932049      0.8506507874       0.08333333582
             0.4472135901     -0.7236068249      0.5257310867       0.08333333582
            -0.4472135901     -0.8944271803   1.095357398e-16       0.08333333582
             0.4472135901     -0.7236068249     -0.5257310867       0.08333333582
            -0.4472135901     -0.2763932049     -0.8506507874       0.08333333582
             0.4472135901      0.2763932049     -0.8506507874       0.08333333582
            -0.4472135901      0.7236068249     -0.5257310867       0.08333333582
    Maximum cutoff radius 0.9279999733

  Adding pseudopotential for Ni
   Linear grid  ri=0 rf=10 npts = 10001
    ECPComponentBuilder::buildSemiLocalAndLocal 
WARNING Nrule was not determined from qmcpack input or pseudopotential file. Setting sensible default.
    Assuming Hartree unit
 l-local setting found in pseudopotential file and used.
   Number of angular momentum channels 3
   Maximum angular momentum channel (Lmax) 2
   Creating a Linear Grid Rmax=0.8024579883
  Using global grid with delta = 0.001
   Making L=1 a local potential with a radial cutoff of 9.998999311
  Quadrature Nrule: 4
    Non-local pseudopotential parameters
    Maximum angular momentum = 2
    Number of non-local channels = 2
       l(0)=0
       l(1)=2
    Cutoff radius = 0.8029999733
    Number of spherical integration grid points = 12
    Spherical grid and weights: 
                        1                 0                 0       0.08333333582
                       -1   1.224646853e-16                 0       0.08333333582
             0.4472135901      0.8944271803                 0       0.08333333582
            -0.4472135901      0.7236068249      0.5257310867       0.08333333582
             0.4472135901      0.2763932049      0.8506507874       0.08333333582
            -0.4472135901     -0.2763932049      0.8506507874       0.08333333582
             0.4472135901     -0.7236068249      0.5257310867       0.08333333582
            -0.4472135901     -0.8944271803   1.095357398e-16       0.08333333582
             0.4472135901     -0.7236068249     -0.5257310867       0.08333333582
            -0.4472135901     -0.2763932049     -0.8506507874       0.08333333582
             0.4472135901      0.2763932049     -0.8506507874       0.08333333582
            -0.4472135901      0.7236068249     -0.5257310867       0.08333333582
    Maximum cutoff radius 0.8029999733

  Creating CoulombHandler with the Esler Optimized Breakup. 
  KContainer initialised with cutoff 15.06702805
   # of K-shell  = 3049
   # of K points = 113346

  NUMBER OF OPT_BREAK KVECS = 41267462595
 finding kc:  2.691655159 , 2.691655159
  LRBreakp parameter Kc =2.691655159
    Continuum approximation in k = [15.06702851,1076.662076)

   LR Breakup chi^2 = 2.00847e-16
   Constant of PBCAB 962.12
  Rcut                5.5728
  Maximum K shell     46
  Number of k vectors 656
    CoulombPBCAB::add 
 Setting a linear grid=[0,5.5728) number of grid =5573
    Creating the short-range pseudopotential for species 0
    Creating the short-range pseudopotential for species 1
  QMCHamiltonian::addOperator LocalECP to H, physical Hamiltonian 

  Using NonLocalECP potential 
    Maximum grid on a sphere for NonLocalECPotential: 12
    Using batched ratio computing in NonLocalECP
  QMCHamiltonian::addOperator NonLocalECP to H, physical Hamiltonian 

   Coulomb Potential
   -----------------
    Name: IonIon   Type: AA   PBC: yes

  Clone CoulombHandler. 
   PBCAA self-interaction term -1570.7
   PBCAA total constant -2051.7
Checking ion-ion Ewald energy against reference...
  Check passed.
  Maximum K shell 46
  Number of k vectors 656
  Fixed Coulomb potential for i
    e-e Madelung Const. =-0.10848083
    Vtot     =-1914.387
  QMCHamiltonian::addOperator IonIon to H, physical Hamiltonian 
QMCHamiltonian::addOperatorType added type coulomb named IonIon

   Coulomb Potential
   -----------------
    Name: ElecElec   Type: AA   PBC: yes

  Clone CoulombHandler. 
   PBCAA self-interaction term -104.71003
   PBCAA total constant -585.77245
  Maximum K shell 46
  Number of k vectors 656
  Fixed Coulomb potential for e
    e-e Madelung Const. =-0.10848083
    Vtot     =0
  QMCHamiltonian::addOperator ElecElec to H, physical Hamiltonian 
QMCHamiltonian::addOperatorType added type coulomb named ElecElec

  QMCHamiltonian::add2WalkerProperty added
    5 to P::PropertyList 
    0 to P::Collectables 
    starting Index of the observables in P::PropertyList = 9
ParticleSetPool::randomize 1 ParticleSet.
<init source="i" target="e">
</init>
  Initialization Execution time = 14.8 secs
=========================================================
 Summary of QMC systems 
=========================================================
ParticleSetPool has: 

  ParticleSet 'e' contains 384 particles :  u(192) d(192)

    u -2.8980975151e+00  1.2723527908e+01  4.7049961090e+00
    u  2.6433546543e+00  4.8306803703e+00  4.0376114845e+00
    u  2.6977155209e+00  4.2291159630e+00  4.8660554886e+00
    u -7.2871890068e+00  7.3566861153e+00  1.0459032059e+01
    u -9.9708765745e-01  1.4647432327e+01  1.1324078560e+01
    u  6.5424423218e+00  8.6513185501e+00  1.2136655807e+01
    u  1.2691295147e+00  3.4298646450e+00  8.6640300751e+00
    u -2.7991321683e-01  4.9056463242e+00  6.6667256355e+00
    u -3.6815218627e-02  2.8308324814e+00  8.9998674393e+00
    u  6.4845043421e-01  9.1628141403e+00  4.5895419121e+00
    (... and 374 more particle positions ...)

  Distance table for similar particles (A-A):
    source/target: e
    Using structure-of-arrays (SoA) data layout
    Distance computations use general periodic cell in 3D without corner image checks.

  Distance table for dissimilar particles (A-B):
    source: i  target: e
    Using structure-of-arrays (SoA) data layout
    Distance computations use general periodic cell in 3D without corner image checks.


  ParticleSet 'i' contains 32 particles :  O(16) Ni(16)

    O  3.9405500889e+00  3.9405500889e+00  3.9405500889e+00
    O  0.0000000000e+00  0.0000000000e+00  1.1821650505e+01
    O  0.0000000000e+00  3.9405500889e+00  7.8811001778e+00
    O  0.0000000000e+00  7.8811001778e+00  3.9405500889e+00
    O  3.9405500889e+00  7.8811001778e+00  0.0000000000e+00
    O -3.9405500889e+00  3.9405500889e+00  1.1821650505e+01
    O -3.9405503273e+00  7.8811001778e+00  7.8811001778e+00
    O -1.1920928955e-07  1.1821650505e+01  0.0000000000e+00
    O  0.0000000000e+00  0.0000000000e+00  3.9405500889e+00
    O  0.0000000000e+00  3.9405500889e+00  0.0000000000e+00
    (... and 22 more particle positions ...)

  Distance table for similar particles (A-A):
    source/target: i
    Using structure-of-arrays (SoA) data layout
    Distance computations use general periodic cell in 3D without corner image checks.


  Hamiltonian h0
  Kinetic         Kinetic energy
  LocalECP        CoulombPBCAB potential source: i
  NonLocalECP     NonLocalECPotential: i
  IonIon          CoulombPBCAA potential: i_i
  ElecElec        CoulombPBCAA potential: e_e


========================================
  Reading VMC driver XML input section
========================================
<estimator> nodes not contained in <estimators>...</estimators> is a deprecated input xml idiom
  Random walking without drift
EstimatorManager setup for this section:
  Main Estimator:  LocalEnergy

=========================================================
  Start VMCBatched
  File Root NiO-fcc-S8-dmc.s001
=========================================================
==============================================================
--- Memory usage report : VMCBatched before initialization ---
==============================================================
Available memory on node 0, free + buffers :  248100 MiB
Memory footprint by rank 0 on node 0       :    1290 MiB
==============================================================
WARNING TotalWalkers (128) not divisible by number of ranks (126). This will result in a loss of efficiency.
VMCBatched Driver running with
             total_walkers     = 128
             walkers_per_rank  = [2(x2), 1(x124)]
             num_crowds        = 1
  on rank 0, walkers_per_crowd = [2]

===================================================================
--- Memory usage report : VMCBatched after initialLogEvaluation ---
===================================================================
Available memory on node 0, free + buffers :  248100 MiB
Memory footprint by rank 0 on node 0       :    1290 MiB
===================================================================
Warm-up is completed!
=====================================================
--- Memory usage report : VMCBatched after Warmup ---
=====================================================
Available memory on node 0, free + buffers :  248100 MiB
Memory footprint by rank 0 on node 0       :    1290 MiB
=====================================================
====================================================
  End of a VMC block
    QMC counter        = 1
    time step          = 1
    reference energy   = -2967.11
    reference variance = 107.856
====================================================
=============================================
--- Memory usage report : VMCBatched ends ---
=============================================
Available memory on node 0, free + buffers :  248101 MiB
Memory footprint by rank 0 on node 0       :    1290 MiB
=============================================
  QMC Execution time = 1.3304e+00 secs

========================================
  Reading VMC driver XML input section
========================================
<estimator> nodes not contained in <estimators>...</estimators> is a deprecated input xml idiom
  Random walking with drift
EstimatorManager setup for this section:
  Main Estimator:  LocalEnergy

=========================================================
  Start VMCBatched
  File Root NiO-fcc-S8-dmc.s002
=========================================================
==============================================================
--- Memory usage report : VMCBatched before initialization ---
==============================================================
Available memory on node 0, free + buffers :  248101 MiB
Memory footprint by rank 0 on node 0       :    1290 MiB
==============================================================
WARNING TotalWalkers (128) not divisible by number of ranks (126). This will result in a loss of efficiency.
VMCBatched Driver running with
             total_walkers     = 128
             walkers_per_rank  = [2(x2), 1(x124)]
             num_crowds        = 1
  on rank 0, walkers_per_crowd = [2]

===================================================================
--- Memory usage report : VMCBatched after initialLogEvaluation ---
===================================================================
Available memory on node 0, free + buffers :  248101 MiB
Memory footprint by rank 0 on node 0       :    1290 MiB
===================================================================
Warm-up is completed!
=====================================================
--- Memory usage report : VMCBatched after Warmup ---
=====================================================
Available memory on node 0, free + buffers :  248099 MiB
Memory footprint by rank 0 on node 0       :    1290 MiB
=====================================================
====================================================
  End of a VMC block
    QMC counter        = 2
    time step          = 1
    reference energy   = -2966.16
    reference variance = 93.7011
====================================================
=============================================
--- Memory usage report : VMCBatched ends ---
=============================================
Available memory on node 0, free + buffers :  248102 MiB
Memory footprint by rank 0 on node 0       :    1290 MiB
=============================================
  QMC Execution time = 1.4234e+00 secs

========================================
  Reading DMC driver XML input section
========================================
<estimator> nodes not contained in <estimators>...</estimators> is a deprecated input xml idiom
  Using Non-local T-moves v0, M. Casula, PRB 74, 161102(R) (2006)
EstimatorManager setup for this section:
  Main Estimator:  LocalEnergy

=========================================================
  Start DMCBatched
  File Root NiO-fcc-S8-dmc.s003
=========================================================
==============================================================
--- Memory usage report : DMCBatched before initialization ---
==============================================================
Available memory on node 0, free + buffers :  248103 MiB
Memory footprint by rank 0 on node 0       :    1290 MiB
==============================================================
WARNING TotalWalkers (128) not divisible by number of ranks (126). This will result in a loss of efficiency.
DMCBatched Driver running with
             total_walkers     = 128
             walkers_per_rank  = [2(x2), 1(x124)]
             num_crowds        = 1
  on rank 0, walkers_per_crowd = [2]

  Creating the branching engine and walker controler
  WalkerControl parameters 
    maxCopy = 2
    Max Walkers per MPI rank 3
    Min Walkers per MPI rank 1
    Using non-blocking send/recv
    Disable branching for debugging as the user input request.
  Fluctuating population
  Persistent walkers are killed after 10 MC sweeps
  BranchInterval = 1
  Steps per block = 5
  Number of blocks = 10

  DMC Engine Initialization = 2.0964e-04 secs
  START ALL OVER 
  QMC counter             = -1
  time step               = 1.0000e-03
  effective time step     = 1.0000e-03
  trial energy            = -2.9657e+03
  reference energy        = -2.9657e+03
  reference variance      = 9.2060e+01
  Feedback                = 1.0000e+00
  target walkers          = 128
  branching cutoff scheme = classic
  branch cutoff, max      = 9.2060e+02 1.3809e+03
  QMC Status (BranchMode) = 0000001101
===================================================================
--- Memory usage report : DMCBatched after initialLogEvaluation ---
===================================================================
Available memory on node 0, free + buffers :  248106 MiB
Memory footprint by rank 0 on node 0       :    1290 MiB
===================================================================
====================================================
  End of a DMC block
    QMC counter                   = -1
    time step                     = 0.001
    effective time step           = 0.00099806
    trial energy                  = -2969.33
    reference energy              = -2965.67
    reference variance            = 92.0603
    target walkers                = 128
    branch cutoff                 = 920.603 1380.91
    Feedback                      = 1
    QMC Status (BranchMode)       = 0000001101
====================================================
=============================================
--- Memory usage report : DMCBatched ends ---
=============================================
Available memory on node 0, free + buffers :  248104 MiB
Memory footprint by rank 0 on node 0       :    1290 MiB
=============================================
  QMC Execution time = 3.9724e+00 secs
  Total Execution time = 6.7340e+00 secs

=========================================================
  A new xml input file : NiO-fcc-S8-dmc.s003.cont.xml

Use --enable-timers=<value> command line option to increase or decrease level of timing information
Stack timer profile
Timer         Inclusive_time  Exclusive_time  Calls       Time_per_call
Total           21.5338     0.0019              1      21.533773284
  DMCBatched     3.9739     3.9739              1       3.973871328
  Startup       14.7998    14.7998              1      14.799772305
  VMCBatched     2.7582     2.7582              2       1.379112020

QMCPACK execution completed successfully
FLUX-RUN END qmcpack-iter-1
0% [Working]            Get:1 http://security.ubuntu.com/ubuntu jammy-security InRelease [129 kB]
0% [Waiting for headers] [1 InRelease 5484 B/129 kB 4%]                                                       0% [Waiting for headers]                        Hit:2 http://archive.ubuntu.com/ubuntu jammy InRelease
                        0% [Working]0% [Waiting for headers]                        Get:3 http://archive.ubuntu.com/ubuntu jammy-updates InRelease [128 kB]
0% [3 InRelease 12.7 kB/128 kB 10%] [Waiting for headers]                                                         Get:4 http://security.ubuntu.com/ubuntu jammy-security/restricted amd64 Packages [4118 kB]
0% [3 InRelease 15.6 kB/128 kB 12%] [4 Packages 2655 B/4118 kB 0%]0% [3 InRelease 15.6 kB/128 kB 12%] [4 Packages 137 kB/4118 kB 3%]                                                                  0% [3 InRelease 82.2 kB/128 kB 64%]0% [4 Packages store 0 B] [3 InRelease 82.2 kB/128 kB 64%] [Waiting for headers                                                                               Get:5 http://security.ubuntu.com/ubuntu jammy-security/main amd64 Packages [2844 kB]
0% [4 Packages store 0 B] [3 InRelease 85.1 kB/128 kB 66%] [5 Packages 8447 B/2                                                                               0% [4 Packages store 0 B] [5 Packages 2844 kB/2844 kB 100%]                                                           0% [Waiting for headers] [5 Packages 2844 kB/2844 kB 100%]0% [Waiting for headers] [5 Packages 2844 kB/2844 kB 100%]                                                          0% [Waiting for headers] [Waiting for headers]                                              Get:6 http://security.ubuntu.com/ubuntu jammy-security/universe amd64 Packages [1244 kB]
0% [Waiting for headers] [6 Packages 16.4 kB/1244 kB 1%]0% [5 Packages store 0 B] [Waiting for headers] [6 Packages 51.8 kB/1244 kB 4%]                                                                               Get:7 http://archive.ubuntu.com/ubuntu jammy-backports InRelease [127 kB]
0% [5 Packages store 0 B] [7 InRelease 2588 B/127 kB 2%] [6 Packages 1244 kB/120% [5 Packages store 0 B] [7 InRelease 35.9 kB/127 kB 28%] [Waiting for headers                                                                               Get:8 http://security.ubuntu.com/ubuntu jammy-security/multiverse amd64 Packages [47.7 kB]
0% [5 Packages store 0 B] [7 InRelease 35.9 kB/127 kB 28%] [8 Packages 17.6 kB/                                                                               0% [5 Packages store 0 B] [7 InRelease 67.6 kB/127 kB 53%]                                                          0% [5 Packages store 0 B]                         0% [Working]0% [6 Packages store 0 B] [Waiting for headers]                                               0% [Waiting for headers]0% [8 Packages store 0 B] [Waiting for headers]                                               0% [Waiting for headers]56% [Waiting for headers]                         Get:9 http://archive.ubuntu.com/ubuntu jammy-updates/restricted amd64 Packages [4272 kB]
56% [9 Packages 20.5 kB/4272 kB 0%]70% [9 Packages 3180 kB/4272 kB 74%]                                    75% [Waiting for headers]                         Get:10 http://archive.ubuntu.com/ubuntu jammy-updates/main amd64 Packages [3154 kB]
75% [10 Packages 58.5 kB/3154 kB 2%]75% [9 Packages store 0 B] [10 Packages 58.5 kB/3154 kB 2%]                                                           89% [9 Packages store 0 B] [Waiting for headers]                                                Get:11 http://archive.ubuntu.com/ubuntu jammy-updates/universe amd64 Packages [1543 kB]
89% [9 Packages store 0 B] [11 Packages 49.6 kB/1543 kB 3%]                                                           96% [11 Packages 1543 kB/1543 kB 100%]96% [10 Packages store 0 B] [11 Packages 1543 kB/1543 kB 100%]                                                              96% [10 Packages store 0 B] [Waiting for headers]                                                 Get:12 http://archive.ubuntu.com/ubuntu jammy-updates/multiverse amd64 Packages [55.7 kB]
97% [10 Packages store 0 B] [12 Packages 14.1 kB/55.7 kB 25%]                                                             97% [10 Packages store 0 B] [Waiting for headers]                                                 97% [Waiting for headers]97% [11 Packages store 0 B] [Waiting for headers]                                                 98% [Waiting for headers]98% [12 Packages store 0 B] [Waiting for headers]                                                 98% [Waiting for headers]                         Get:13 http://archive.ubuntu.com/ubuntu jammy-backports/universe amd64 Packages [35.2 kB]
98% [13 Packages 5555 B/35.2 kB 16%]                                    99% [Working]99% [13 Packages store 0 B] [Waiting for headers]                                                 99% [Waiting for headers]                         Get:14 http://archive.ubuntu.com/ubuntu jammy-backports/main amd64 Packages [82.7 kB]
99% [14 Packages 2658 B/82.7 kB 3%]                                   99% [Working]99% [14 Packages store 0 B]                           100% [Working]              Fetched 17.8 MB in 3s (6644 kB/s)
Reading package lists... 0%Reading package lists... 0%Reading package lists... 0%Reading package lists... 4%Reading package lists... 4%Reading package lists... 5%Reading package lists... 5%Reading package lists... 46%Reading package lists... 46%Reading package lists... 47%Reading package lists... 47%Reading package lists... 56%Reading package lists... 56%Reading package lists... 69%Reading package lists... 69%Reading package lists... 74%Reading package lists... 74%Reading package lists... 74%Reading package lists... 74%Reading package lists... 74%Reading package lists... 74%Reading package lists... 74%Reading package lists... 74%Reading package lists... 80%Reading package lists... 83%Reading package lists... 83%Reading package lists... 95%Reading package lists... 95%Reading package lists... 99%Reading package lists... 99%Reading package lists... 99%Reading package lists... 99%Reading package lists... Done
Reading package lists... 0%Reading package lists... 0%Reading package lists... 0%Reading package lists... 4%Reading package lists... 4%Reading package lists... 5%Reading package lists... 5%Reading package lists... 46%Reading package lists... 46%Reading package lists... 47%Reading package lists... 47%Reading package lists... 56%Reading package lists... 56%Reading package lists... 69%Reading package lists... 69%Reading package lists... 74%Reading package lists... 74%Reading package lists... 74%Reading package lists... 74%Reading package lists... 74%Reading package lists... 74%Reading package lists... 74%Reading package lists... 74%Reading package lists... 83%Reading package lists... 83%Reading package lists... 95%Reading package lists... 95%Reading package lists... 99%Reading package lists... 99%Reading package lists... 99%Reading package lists... 99%Reading package lists... Done
Building dependency tree... 0%Building dependency tree... 0%Building dependency tree... 50%Building dependency tree... 50%Building dependency tree... 52%Building dependency tree... Done
Reading state information... 0% Reading state information... 0%Reading state information... Done
The following additional packages will be installed:
  libjq1 libonig5
The following NEW packages will be installed:
  jq libjq1 libonig5
0 upgraded, 3 newly installed, 0 to remove and 110 not upgraded.
Need to get 357 kB of archives.
After this operation, 1087 kB of additional disk space will be used.
0% [Working]            Get:1 http://archive.ubuntu.com/ubuntu jammy/main amd64 libonig5 amd64 6.9.7.1-2build1 [172 kB]
2% [1 libonig5 6948 B/172 kB 4%]                                45% [Working]             Get:2 http://archive.ubuntu.com/ubuntu jammy/main amd64 libjq1 amd64 1.6-2.1ubuntu3 [133 kB]
47% [2 libjq1 9844 B/133 kB 7%]                               82% [Waiting for headers]                         Get:3 http://archive.ubuntu.com/ubuntu jammy/main amd64 jq amd64 1.6-2.1ubuntu3 [52.5 kB]
82% [3 jq 2872 B/52.5 kB 5%]                            100% [Working]              Fetched 357 kB in 1s (380 kB/s)
debconf: delaying package configuration, since apt-utils is not installed
Selecting previously unselected package libonig5:amd64.
(Reading database ... (Reading database ... 5%(Reading database ... 10%(Reading database ... 15%(Reading database ... 20%(Reading database ... 25%(Reading database ... 30%(Reading database ... 35%(Reading database ... 40%(Reading database ... 45%(Reading database ... 50%(Reading database ... 55%(Reading database ... 60%(Reading database ... 65%(Reading database ... 70%(Reading database ... 75%(Reading database ... 80%(Reading database ... 85%(Reading database ... 90%(Reading database ... 95%(Reading database ... 100%(Reading database ... 37592 files and directories currently installed.)
Preparing to unpack .../libonig5_6.9.7.1-2build1_amd64.deb ...
Unpacking libonig5:amd64 (6.9.7.1-2build1) ...
Selecting previously unselected package libjq1:amd64.
Preparing to unpack .../libjq1_1.6-2.1ubuntu3_amd64.deb ...
Unpacking libjq1:amd64 (1.6-2.1ubuntu3) ...
Selecting previously unselected package jq.
Preparing to unpack .../jq_1.6-2.1ubuntu3_amd64.deb ...
Unpacking jq (1.6-2.1ubuntu3) ...
Setting up libonig5:amd64 (6.9.7.1-2build1) ...
Setting up libjq1:amd64 (1.6-2.1ubuntu3) ...
Setting up jq (1.6-2.1ubuntu3) ...
Processing triggers for libc-bin (2.35-0ubuntu3.1) ...

FLUX-JOB START 19092471808 qmcpack-iter-1
FLUX-JOB-JOBSPEC START
{"resources": [{"type": "node", "count": 2, "with": [{"type": "slot", "count": 63, "with": [{"type": "core", "count": 1}], "label": "task"}]}], "tasks": [{"command": ["qmcpack", "NiO-fcc-S8-dmc-strongscale.xml"], "slot": "task", "count": {"per_slot": 1}}], "attributes": {"system": {"duration": 0, "cwd": "/coral2/NiO/dmc-a32-e384-batched_driver-DU32", "shell": {"options": {"rlimit": {"cpu": -1, "fsize": -1, "data": -1, "stack": 8388608, "core": -1, "nofile": 1048576, "as": -1, "rss": -1, "nproc": -1}, "cpu-affinity": "per-task", "gpu-affinity": "off"}}}, "user": {"study_id": "qmcpack-iter-1"}}, "version": 1}
FLUX-JOB-JOBSPEC END
FLUX-JOB-RESOURCES START
{"version": 1, "execution": {"R_lite": [{"rank": "0-1", "children": {"core": "0-62"}}], "starttime": 1745802403.742974, "expiration": 0.0, "nodelist": ["qmcpack-[0-1]"]}}
FLUX-JOB-RESOURCES END
FLUX-JOB-EVENTLOG START
{"timestamp":1745802403.7442989,"name":"init"}
{"timestamp":1745802403.7448888,"name":"starting"}
{"timestamp":1745802403.7555034,"name":"shell.init","context":{"service":"0-shell-fW68uhR","leader-rank":0,"size":2}}
{"timestamp":1745802403.8707108,"name":"shell.start","context":{"taskmap":{"version":1,"map":[[0,2,63,1]]}}}
{"timestamp":1745802428.0332675,"name":"shell.task-exit","context":{"localid":38,"rank":101,"state":"Exited","pid":111,"wait_status":0,"signaled":0,"exitcode":0}}
{"timestamp":1745802428.1820834,"name":"complete","context":{"status":0}}
{"timestamp":1745802428.1821232,"name":"done"}

FLUX-JOB-EVENTLOG END
FLUX-JOB END 19092471808 qmcpack-iter-1
FLUX JOB STATS
{"job_states":{"depend":0,"priority":0,"sched":0,"run":0,"cleanup":0,"inactive":1,"total":1},"successful":1,"failed":0,"canceled":0,"timeout":0,"inactive_purged":0,"queues":[]}
