Defaulted container "qmcpack" out of: qmcpack, flux-view (init)
cp: cannot stat '/mnt/flux/software/*': No such file or directory
#!/bin/bash
set -euo pipefail
mkdir -p /tmp/output
flux resource list
for i in {1..5}
do
  echo "FLUX-RUN START qmcpack-iter-$i"
  flux run --setattr=user.study_id=qmcpack-iter-$i -N8 -n 704 -o cpu-affinity=per-task -o gpu-affinity=off     qmcpack NiO-fcc-S8-dmc-strongscale.xml |& tee /tmp/qmcpack.out
  
   echo "FLUX-RUN END qmcpack-iter-$i"
done


output=./results/${app}
(apt-get update && apt-get install -y jq) || (yum update -y && yum install -y jq)
mkdir -p $output
for jobid in $(flux jobs -a --json | jq -r .jobs[].id); do
    echo
    study_id=$(flux job info $jobid jobspec | jq -r ".attributes.user.study_id")
    echo "FLUX-JOB START ${jobid} ${study_id}"
    echo "FLUX-JOB-JOBSPEC START"
    flux job info $jobid jobspec
    echo "FLUX-JOB-JOBSPEC END" 
    
    echo "FLUX-JOB-RESOURCES START"
    flux job info ${jobid} R
    echo "FLUX-JOB-RESOURCES END"
    echo "FLUX-JOB-EVENTLOG START" 
    flux job info $jobid guest.exec.eventlog
    echo "FLUX-JOB-EVENTLOG END" 
    echo "FLUX-JOB END ${jobid} ${study_id}"
done
echo "FLUX JOB STATS"
flux job stats         

     STATE NNODES   NCORES    NGPUS NODELIST
      free      8      704        0 qmcpack-[0-7]
 allocated      0        0        0 
      down      0        0        0 
FLUX-RUN START qmcpack-iter-1
WARNING: MPI environment inconsistency?
running program qmcpack compiled with Open MPI v4.1.6 but allocated with PMI (Hydra or MPICH) (np = 704). Try running with `mpirun.openmpi` or load OpenMPI module.

  Input file(s): NiO-fcc-S8-dmc-strongscale.xml 

=====================================================
                    QMCPACK 3.17.1

       (c) Copyright 2003-  QMCPACK developers

                    Please cite:
 J. Kim et al. J. Phys. Cond. Mat. 30 195901 (2018)
      https://doi.org/10.1088/1361-648X/aab9c3

  Git branch: HEAD
  Last git commit: 9d0d968139fc33f71dbf9159f526dd7b47f10a3b
  Last git commit date: Fri Aug 25 07:42:03 2023 -0400
  Last git commit subject: Merge pull request #4711 from QMCPACK/rc_3171
=====================================================
  Global options 

  Total number of MPI ranks = 704
  Number of MPI groups      = 1
  MPI group ID              = 0
  Number of ranks in group  = 704
  MPI ranks per node        = 88
  OMP 1st level threads     = 1
  OMP nested threading disabled or only 1 thread on the 2nd level

  Precision used in this calculation, see definitions in the manual:
  Base precision      = double
  Full precision      = double

  CPU only build
  Real build. QMC_COMPLEX=OFF
  Timer build option is enabled. Current timer level is coarse

=================================================
--- Memory usage report : when QMCPACK starts ---
=================================================
Available memory on node 0, free + buffers :  332435 MiB
Memory footprint by rank 0 on node 0       :      21 MiB
=================================================

  Input XML = NiO-fcc-S8-dmc-strongscale.xml

  Project = NiO-fcc-S8-dmc
  date    = 2025-05-04 23:28:03 UTC
  host    = qmcpack-0


 Random Number
 -------------
  Offset for the random number seeds from input file (mod 1024): 2

  Range of prime numbers to use as seeds over processors and threads = 7-5351


 Lattice
 -------
  Simulation cell radius   = 5.572779 bohr
  Wigner-Seitz cell radius = 5.572779 bohr

  Overwriting global supercell 
  Long-range breakup parameters:
    rc*kc = 15.000000; rc = 5.572779; kc = 2.691655; tol = 0.000300
  KContainer initialised with cutoff 2.691655
   # of K-shell  = 40
   # of K points = 656

  Lattice (bohr):      7.8811000000      7.8811000000      0.0000000000
                      -7.8811000000      7.8811000000      0.0000000000
                       0.0000000000      0.0000000000     15.7622000000

  Boundary Conditions:  p  p  p 

  Volume (bohr^3) = 1958.0352485029

  Reciprocal vectors without 2*pi.
    g_1 =       0.0634429204      0.0634429204     -0.0000000000
    g_2 =      -0.0634429204      0.0634429204      0.0000000000
    g_3 =       0.0000000000     -0.0000000000      0.0634429204

  Metric tensor in real-space.
    h_1 = 124.2234744200 0.0000000000 0.0000000000 
    h_2 = 0.0000000000 124.2234744200 0.0000000000 
    h_3 = 0.0000000000 0.0000000000 248.4469488400 

  Metric tensor in g-space.
    h_1 = 0.3178015893 0.0000000000 0.0000000000 
    h_2 = 0.0000000000 0.3178015893 0.0000000000 
    h_3 = 0.0000000000 0.0000000000 0.1589007947 

 Particle Set
 ------------
  Name: i   Offload : no

  All the species have the same mass 1.0000000000

  Creating Structure Factor for periodic systems 2.6916551542
  Particle set size: 32   Groups : 2


 Particle Set
 ------------
  Name: e   Offload : no

  All the species have the same mass 1.0000000000

  Creating Structure Factor for periodic systems 2.6916551542
  Particle set size: 384   Groups : 2


 Many-body wavefunction
 -------------------
  Name: psi0   Tasking: no

WARNING !!!!!!! Deprecated input style: creating SPO set inside determinantset. Support for this usage will soon be removed. SPO sets should be built outside using sposet_collection.
  Created SPOSet builder named 'einspline' of type einspline

   Single Slater determinant
   -------------------------

     Determinant
     -----------
      Name: updet   Spin group: 0   SPO name: updet

WARNING !!!!!!! Deprecated input style: creating SPO set inside determinantset. Support for this usage will soon be removed. SPO sets should be built outside using sposet_collection.
      Create a new SPO set updet

     Single particle orbitals (SPO)
     ------------------------------
      Name: updet   Type: spline   Builder class name: EinsplineSetBuilder

  TileMatrix = 
 [  1  1  1
    0  2 -2
    1 -1 -1 ]
  Reading 192 orbitals from HDF5 file.
  HDF5 orbital file version 2.1.0
  Reading orbital file in ESHDF format.
  ESHDF orbital file version 2.1.0
  Lattice = 
    [  3.940550  3.940550  7.881100
       0.000000  3.940550 -3.940550
       3.940550  0.000000 -3.940550 ]
  SuperLattice = 
    [  7.881100  7.881100  0.000000
      -7.881100  7.881100  0.000000
       0.000000  0.000000 15.762200 ]

bands=29, elecs=384, spins=2, twists=8, muffin tins=0, core states=0
atomic orbital=0
Atom type(0) = 8
Atom type(1) = 8
Atom type(2) = 28
Atom type(3) = 28
   Skip initialization of the density
TIMER  EinsplineSetBuilder::ReadOrbitalInfo 0.0014443750
TIMER  EinsplineSetBuilder::BroadcastOrbitalInfo 0.0054757560
Found 1 distinct supercell twists.
number of things
8
8
Super twist #0:  [   0.00000   0.00000   0.00000 ]
WARNING twist attribute exists. twistnum attribute ignored. To prevent this message, remove twistnum from input.
  Using supercell twist 0:  [   0.00000   0.00000   0.00000]
Using 1 copies of twist angle [ 0.000,  0.000,  0.000]
Using 2 copies of twist angle [ 0.000,  0.250, -0.250]
Using 1 copies of twist angle [ 0.000,  0.500,  0.500]
Using 1 copies of twist angle [ 0.500,  0.000,  0.500]
Using 2 copies of twist angle [ 0.500,  0.250,  0.250]
Using 1 copies of twist angle [ 0.500,  0.500,  0.000]
Using complex splines.
174 complex-valued orbitals supplied by h5 can be expanded up to 232 SPOs.
Sorting the bands now:
  Occupying bands based on energy in mode "ground"
We will read 144 distinct complex-valued orbitals from h5.
There are 0 core states and 144 valence states.
    Using real valued spline SPOs with complex single precision storage (C2R).
    Running on CPU.
BandInfoGroup::selectBands bigspace has 174 distinct orbitals 
BandInfoGroup::selectBands using distinct orbitals [0,144)
  Number of distinct bands 144
  First Band index 0
  First SPO index 0
  Size of SPOs 192
  ClassName = SplineC2R
  Using complex einspline table
NumDistinctOrbitals 144 numOrbs = 192
B-spline mesh factor is 0.9000000000
B-spline mesh size is (112, 66, 66)
Maxmimum number of Gvecs 35419
  Using meshsize=               112                66                66
  vs input meshsize=               112                66                66
MEMORY 601 MB allocated for the coefficients in 3D spline orbital representation
Start transforming plane waves to 3D B-Splines.
  Time to gather the table = 5.7011067760
  Time to bcast the table = 0.9951621340
  SplineSetReader initialize_spline_pio 8.2907772420 sec
Time spent in creating B-spline SPOs 8.7120152920sec
      Using rank-32 delayed update
      Using walker batching.
      Running OpenMP offload code path on CPU. Only SM1 update is supported. delay_rank is ignored.


     Determinant
     -----------
      Name: downdet   Spin group: 1   SPO name: downdet

WARNING !!!!!!! Deprecated input style: creating SPO set inside determinantset. Support for this usage will soon be removed. SPO sets should be built outside using sposet_collection.
      Create a new SPO set downdet

     Single particle orbitals (SPO)
     ------------------------------
      Name: downdet   Type: spline   Builder class name: EinsplineSetBuilder

174 complex-valued orbitals supplied by h5 can be expanded up to 232 SPOs.
Sorting the bands now:
  Occupying bands based on energy in mode "ground"
We will read 144 distinct complex-valued orbitals from h5.
There are 0 core states and 144 valence states.
BandInfoGroup::selectBands bigspace has 174 distinct orbitals 
BandInfoGroup::selectBands using distinct orbitals [0,144)
  Number of distinct bands 144
  First Band index 0
  First SPO index 0
  Size of SPOs 192
  ClassName = SplineC2R
  Using complex einspline table
NumDistinctOrbitals 144 numOrbs = 192
B-spline mesh factor is 0.9000000000
B-spline mesh size is (112, 66, 66)
Maxmimum number of Gvecs 35419
  Using meshsize=               112                66                66
  vs input meshsize=               112                66                66
MEMORY 601 MB allocated for the coefficients in 3D spline orbital representation
Start transforming plane waves to 3D B-Splines.
  Time to gather the table = 5.5570146460
  Time to bcast the table = 1.0032039220
  SplineSetReader initialize_spline_pio 8.1003287210 sec
Time spent in creating B-spline SPOs 8.4758855320sec
      Using rank-32 delayed update
      Using walker batching.
      Running OpenMP offload code path on CPU. Only SM1 update is supported. delay_rank is ignored.

  Added a fermionic WaveFunctionComponent SlaterDet

   Jastrow
   -------
    Name: J2   Type: Two-Body   Function: Bspline

    Radial function for species: u - u
     Number of parameters: 10
     Cusp: -0.2500000000
     Cutoff radius: 5.5727792532

     Name                        Value Type Recompute Use Index
     ---- ---------------------------- ---- --------- --- -----
     uu_0                 2.862236e-01    1         1  ON     0
     uu_1                 1.947737e-01    1         1  ON     1
     uu_2                 1.319545e-01    1         1  ON     2
     uu_3                 8.893395e-02    1         1  ON     3
     uu_4                 5.695576e-02    1         1  ON     4
     uu_5                 3.565958e-02    1         1  ON     5
     uu_6                 2.206950e-02    1         1  ON     6
     uu_7                 1.296086e-02    1         1  ON     7
     uu_8                 6.601007e-03    1         1  ON     8
     uu_9                 2.787144e-03    1         1  ON     9

    Radial function for species: u - d
     Number of parameters: 10
     Cusp: -0.5
     Cutoff radius: 5.57278

     Name                        Value Type Recompute Use Index
     ---- ---------------------------- ---- --------- --- -----
     ud_0                 3.689310e-01    1         1  ON     0
     ud_1                 2.226722e-01    1         1  ON     1
     ud_2                 1.484297e-01    1         1  ON     2
     ud_3                 9.617039e-02    1         1  ON     3
     ud_4                 5.918787e-02    1         1  ON     4
     ud_5                 3.660856e-02    1         1  ON     5
     ud_6                 2.262412e-02    1         1  ON     6
     ud_7                 1.322280e-02    1         1  ON     7
     ud_8                 6.736329e-03    1         1  ON     8
     ud_9                 2.871931e-03    1         1  ON     9


   Jastrow
   -------
    Name: J1   Type: One-Body   Function: Bspline

    Radial function for element: O - e
     Number of parameters: 10
     Cusp: 0
     Cutoff radius: 4.82617

     Name                        Value Type Recompute Use Index
     ---- ---------------------------- ---- --------- --- -----
      O_0                -2.249113e-01    1         1  ON     0
      O_1                -1.847495e-01    1         1  ON     1
      O_2                -1.154814e-01    1         1  ON     2
      O_3                -4.000123e-02    1         1  ON     3
      O_4                 1.731711e-02    1         1  ON     4
      O_5                 5.360132e-02    1         1  ON     5
      O_6                 5.983041e-02    1         1  ON     6
      O_7                 3.956000e-02    1         1  ON     7
      O_8                 1.739980e-02    1         1  ON     8
      O_9                 5.162164e-03    1         1  ON     9

    Radial function for element: Ni - e
     Number of parameters: 10
     Cusp: 0
     Cutoff radius: 4.82617

     Name                        Value Type Recompute Use Index
     ---- ---------------------------- ---- --------- --- -----
     Ni_0                -1.644855e+00    1         1  ON     0
     Ni_1                -1.470659e+00    1         1  ON     1
     Ni_2                -1.078894e+00    1         1  ON     2
     Ni_3                -6.878965e-01    1         1  ON     3
     Ni_4                -3.907005e-01    1         1  ON     4
     Ni_5                -1.962103e-01    1         1  ON     5
     Ni_6                -8.512756e-02    1         1  ON     6
     Ni_7                -2.752357e-02    1         1  ON     7
     Ni_8                -4.017983e-03    1         1  ON     8
     Ni_9                 7.665934e-04    1         1  ON     9

  Adding psi0 TrialWaveFunction to the pool

 Hamiltonian and observables
 ---------------------------
  Name: h0

  QMCHamiltonian::addOperator Kinetic to H, physical Hamiltonian 

   Pseudo Potential
   ----------------
    Name: PseudoPot   Wavefunction : psi0


  Adding pseudopotential for O
   Linear grid  ri=0 rf=10 npts = 10001
    ECPComponentBuilder::buildSemiLocalAndLocal 
WARNING Nrule was not determined from qmcpack input or pseudopotential file. Setting sensible default.
    Assuming Hartree unit
 l-local setting found in pseudopotential file and used.
   Number of angular momentum channels 2
   Maximum angular momentum channel (Lmax) 1
   Creating a Linear Grid Rmax=0.927291
  Using global grid with delta = 0.001
   Making L=0 a local potential with a radial cutoff of 9.999
  Quadrature Nrule: 4
    Non-local pseudopotential parameters
    Maximum angular momentum = 1
    Number of non-local channels = 1
       l(0)=1
    Cutoff radius = 0.928
    Number of spherical integration grid points = 12
    Spherical grid and weights: 
                        1                 0                 0       0.08333333333
                       -1   1.224646799e-16                 0       0.08333333333
             0.4472135955       0.894427191                 0       0.08333333333
            -0.4472135955      0.7236067977      0.5257311121       0.08333333333
             0.4472135955      0.2763932023      0.8506508084       0.08333333333
            -0.4472135955     -0.2763932023      0.8506508084       0.08333333333
             0.4472135955     -0.7236067977      0.5257311121       0.08333333333
            -0.4472135955      -0.894427191   1.095357397e-16       0.08333333333
             0.4472135955     -0.7236067977     -0.5257311121       0.08333333333
            -0.4472135955     -0.2763932023     -0.8506508084       0.08333333333
             0.4472135955      0.2763932023     -0.8506508084       0.08333333333
            -0.4472135955      0.7236067977     -0.5257311121       0.08333333333
    Maximum cutoff radius 0.928

  Adding pseudopotential for Ni
   Linear grid  ri=0 rf=10 npts = 10001
    ECPComponentBuilder::buildSemiLocalAndLocal 
WARNING Nrule was not determined from qmcpack input or pseudopotential file. Setting sensible default.
    Assuming Hartree unit
 l-local setting found in pseudopotential file and used.
   Number of angular momentum channels 3
   Maximum angular momentum channel (Lmax) 2
   Creating a Linear Grid Rmax=0.802458
  Using global grid with delta = 0.001
   Making L=1 a local potential with a radial cutoff of 9.999
  Quadrature Nrule: 4
    Non-local pseudopotential parameters
    Maximum angular momentum = 2
    Number of non-local channels = 2
       l(0)=0
       l(1)=2
    Cutoff radius = 0.803
    Number of spherical integration grid points = 12
    Spherical grid and weights: 
                        1                 0                 0       0.08333333333
                       -1   1.224646799e-16                 0       0.08333333333
             0.4472135955       0.894427191                 0       0.08333333333
            -0.4472135955      0.7236067977      0.5257311121       0.08333333333
             0.4472135955      0.2763932023      0.8506508084       0.08333333333
            -0.4472135955     -0.2763932023      0.8506508084       0.08333333333
             0.4472135955     -0.7236067977      0.5257311121       0.08333333333
            -0.4472135955      -0.894427191   1.095357397e-16       0.08333333333
             0.4472135955     -0.7236067977     -0.5257311121       0.08333333333
            -0.4472135955     -0.2763932023     -0.8506508084       0.08333333333
             0.4472135955      0.2763932023     -0.8506508084       0.08333333333
            -0.4472135955      0.7236067977     -0.5257311121       0.08333333333
    Maximum cutoff radius 0.803

  Creating CoulombHandler with the Esler Optimized Breakup. 
  KContainer initialised with cutoff 15.0670289
   # of K-shell  = 1194
   # of K points = 113346

  NUMBER OF OPT_BREAK KVECS = 41267457674
 finding kc:  2.691655154 , 2.691655154
  LRBreakp parameter Kc =2.691655154
    Continuum approximation in k = [15.0670289,1076.662062)

   LR Breakup chi^2 = 2.00846e-16
   Constant of PBCAB 962.12
  Rcut                5.5728
  Maximum K shell     39
  Number of k vectors 656
    CoulombPBCAB::add 
 Setting a linear grid=[0,5.5728) number of grid =5573
    Creating the short-range pseudopotential for species 0
    Creating the short-range pseudopotential for species 1
  QMCHamiltonian::addOperator LocalECP to H, physical Hamiltonian 

  Using NonLocalECP potential 
    Maximum grid on a sphere for NonLocalECPotential: 12
    Using batched ratio computing in NonLocalECP
  QMCHamiltonian::addOperator NonLocalECP to H, physical Hamiltonian 

   Coulomb Potential
   -----------------
    Name: IonIon   Type: AA   PBC: yes

  Clone CoulombHandler. 
   PBCAA self-interaction term -1570.7
   PBCAA total constant -2051.7
Checking ion-ion Ewald energy against reference...
  Check passed.
  Maximum K shell 39
  Number of k vectors 656
  Fixed Coulomb potential for i
    e-e Madelung Const. =-0.10848165
    Vtot     =-1914.3872
  QMCHamiltonian::addOperator IonIon to H, physical Hamiltonian 
QMCHamiltonian::addOperatorType added type coulomb named IonIon

   Coulomb Potential
   -----------------
    Name: ElecElec   Type: AA   PBC: yes

  Clone CoulombHandler. 
   PBCAA self-interaction term -104.71024
   PBCAA total constant -585.77075
  Maximum K shell 39
  Number of k vectors 656
  Fixed Coulomb potential for e
    e-e Madelung Const. =-0.10848165
    Vtot     =0
  QMCHamiltonian::addOperator ElecElec to H, physical Hamiltonian 
QMCHamiltonian::addOperatorType added type coulomb named ElecElec

  QMCHamiltonian::add2WalkerProperty added
    5 to P::PropertyList 
    0 to P::Collectables 
    starting Index of the observables in P::PropertyList = 9
ParticleSetPool::randomize 1 ParticleSet.
<init source="i" target="e">
</init>
  Initialization Execution time = 17.73 secs
=========================================================
 Summary of QMC systems 
=========================================================
ParticleSetPool has: 

  ParticleSet 'e' contains 384 particles :  u(192) d(192)

    u -2.8980970917e+00  1.2723527259e+01  4.7049967489e+00
    u  2.6433543703e+00  4.8306803474e+00  4.0376115853e+00
    u  2.6977153195e+00  4.2291160670e+00  4.8660558456e+00
    u -7.2871890222e+00  7.3566860185e+00  1.0459031486e+01
    u -9.9708743990e-01  1.4647431366e+01  1.1324078881e+01
    u  6.5424419981e+00  8.6513182115e+00  1.2136654998e+01
    u  1.2691298651e+00  3.4298648034e+00  8.6640300760e+00
    u -2.7991323100e-01  4.9056467590e+00  6.6667251331e+00
    u -3.6815222525e-02  2.8308325366e+00  8.9998677504e+00
    u  6.4845024407e-01  9.1628143405e+00  4.5895416169e+00
    (... and 374 more particle positions ...)

  Distance table for similar particles (A-A):
    source/target: e
    Using structure-of-arrays (SoA) data layout
    Distance computations use general periodic cell in 3D without corner image checks.

  Distance table for dissimilar particles (A-B):
    source: i  target: e
    Using structure-of-arrays (SoA) data layout
    Distance computations use general periodic cell in 3D without corner image checks.


  ParticleSet 'i' contains 32 particles :  O(16) Ni(16)

    O  3.9405500000e+00  3.9405500000e+00  3.9405500000e+00
    O  0.0000000000e+00  0.0000000000e+00  1.1821650000e+01
    O  0.0000000000e+00  3.9405500000e+00  7.8811000000e+00
    O  0.0000000000e+00  7.8811000000e+00  3.9405500000e+00
    O  3.9405500000e+00  7.8811000000e+00  0.0000000000e+00
    O -3.9405500000e+00  3.9405500000e+00  1.1821650000e+01
    O -3.9405500000e+00  7.8811000000e+00  7.8811000000e+00
    O  0.0000000000e+00  1.1821650000e+01  0.0000000000e+00
    O  0.0000000000e+00  0.0000000000e+00  3.9405500000e+00
    O  0.0000000000e+00  3.9405500000e+00  0.0000000000e+00
    (... and 22 more particle positions ...)

  Distance table for similar particles (A-A):
    source/target: i
    Using structure-of-arrays (SoA) data layout
    Distance computations use general periodic cell in 3D without corner image checks.


  Hamiltonian h0
  Kinetic         Kinetic energy
  LocalECP        CoulombPBCAB potential source: i
  NonLocalECP     NonLocalECPotential: i
  IonIon          CoulombPBCAA potential: i_i
  ElecElec        CoulombPBCAA potential: e_e


========================================
  Reading VMC driver XML input section
========================================
<estimator> nodes not contained in <estimators>...</estimators> is a deprecated input xml idiom
  Random walking without drift
EstimatorManager setup for this section:
  Main Estimator:  LocalEnergy

=========================================================
  Start VMCBatched
  File Root NiO-fcc-S8-dmc.s001
=========================================================
==============================================================
--- Memory usage report : VMCBatched before initialization ---
==============================================================
Available memory on node 0, free + buffers :  224177 MiB
Memory footprint by rank 0 on node 0       :    1291 MiB
==============================================================
VMCBatched Driver running with
             total_walkers     = 704
             walkers_per_rank  = [1(x704)]
             num_crowds        = 1
  on rank 0, walkers_per_crowd = [1]

===================================================================
--- Memory usage report : VMCBatched after initialLogEvaluation ---
===================================================================
Available memory on node 0, free + buffers :  224155 MiB
Memory footprint by rank 0 on node 0       :    1294 MiB
===================================================================
Warm-up is completed!
=====================================================
--- Memory usage report : VMCBatched after Warmup ---
=====================================================
Available memory on node 0, free + buffers :  224148 MiB
Memory footprint by rank 0 on node 0       :    1294 MiB
=====================================================
====================================================
  End of a VMC block
    QMC counter        = 1
    time step          = 1
    reference energy   = -2965.72
    reference variance = 108.045
====================================================
=============================================
--- Memory usage report : VMCBatched ends ---
=============================================
Available memory on node 0, free + buffers :  224090 MiB
Memory footprint by rank 0 on node 0       :    1322 MiB
=============================================
  Carry over 704 walker configurations to the next QMC driver.
  QMC Execution time = 1.0964e+00 secs

========================================
  Reading VMC driver XML input section
========================================
<estimator> nodes not contained in <estimators>...</estimators> is a deprecated input xml idiom
  Random walking with drift
EstimatorManager setup for this section:
  Main Estimator:  LocalEnergy

=========================================================
  Start VMCBatched
  File Root NiO-fcc-S8-dmc.s002
=========================================================
==============================================================
--- Memory usage report : VMCBatched before initialization ---
==============================================================
Available memory on node 0, free + buffers :  224089 MiB
Memory footprint by rank 0 on node 0       :    1322 MiB
==============================================================
VMCBatched Driver running with
             total_walkers     = 704
             walkers_per_rank  = [1(x704)]
             num_crowds        = 1
  on rank 0, walkers_per_crowd = [1]

===================================================================
--- Memory usage report : VMCBatched after initialLogEvaluation ---
===================================================================
Available memory on node 0, free + buffers :  224087 MiB
Memory footprint by rank 0 on node 0       :    1322 MiB
===================================================================
Warm-up is completed!
=====================================================
--- Memory usage report : VMCBatched after Warmup ---
=====================================================
Available memory on node 0, free + buffers :  224088 MiB
Memory footprint by rank 0 on node 0       :    1322 MiB
=====================================================
====================================================
  End of a VMC block
    QMC counter        = 2
    time step          = 1
    reference energy   = -2966.79
    reference variance = 119.882
====================================================
=============================================
--- Memory usage report : VMCBatched ends ---
=============================================
Available memory on node 0, free + buffers :  224071 MiB
Memory footprint by rank 0 on node 0       :    1325 MiB
=============================================
  Carry over 704 walker configurations to the next QMC driver.
  QMC Execution time = 7.7976e-01 secs

========================================
  Reading DMC driver XML input section
========================================
<estimator> nodes not contained in <estimators>...</estimators> is a deprecated input xml idiom
  Using Non-local T-moves v0, M. Casula, PRB 74, 161102(R) (2006)
EstimatorManager setup for this section:
  Main Estimator:  LocalEnergy

=========================================================
  Start DMCBatched
  File Root NiO-fcc-S8-dmc.s003
=========================================================
==============================================================
--- Memory usage report : DMCBatched before initialization ---
==============================================================
Available memory on node 0, free + buffers :  224071 MiB
Memory footprint by rank 0 on node 0       :    1325 MiB
==============================================================
DMCBatched Driver running with
             total_walkers     = 704
             walkers_per_rank  = [1(x704)]
             num_crowds        = 1
  on rank 0, walkers_per_crowd = [1]

  Creating the branching engine and walker controler
    Reference energy is updated using the unlimited_history scheme
  WalkerControl parameters 
    maxCopy = 2
    Max Walkers per MPI rank 3
    Min Walkers per MPI rank 1
    Using non-blocking send/recv
    Disable branching for debugging as the user input request.
  Fluctuating population
  Persistent walkers are killed after 10 MC sweeps
  BranchInterval = 1
  Steps per block = 5
  Number of blocks = 10

  DMC Engine Initialization = 2.9595e-04 secs
  START ALL OVER 
  QMC counter             = -1
  time step               = 1.0000e-03
  effective time step     = 1.0000e-03
  trial energy            = -2.9666e+03
  reference energy        = -2.9666e+03
  reference variance      = 9.5442e+01
  Feedback                = 1.0000e+00
  target walkers          = 704
  branching cutoff scheme = classic
  branch cutoff, max      = 9.5442e+02 1.4316e+03
  QMC Status (BranchMode) = 0000001101
===================================================================
--- Memory usage report : DMCBatched after initialLogEvaluation ---
===================================================================
Available memory on node 0, free + buffers :  224071 MiB
Memory footprint by rank 0 on node 0       :    1325 MiB
===================================================================
====================================================
  End of a DMC block
    QMC counter                   = -1
    time step                     = 0.001
    effective time step           = 0.000998042
    trial energy                  = -2968.19
    reference energy              = -2966.58
    reference variance            = 95.4421
    target walkers                = 704
    branch cutoff                 = 954.421 1431.63
    Feedback                      = 1
    QMC Status (BranchMode)       = 0000001101
====================================================
=============================================
--- Memory usage report : DMCBatched ends ---
=============================================
Available memory on node 0, free + buffers :  224073 MiB
Memory footprint by rank 0 on node 0       :    1325 MiB
=============================================
  Carry over 704 walker configurations to the next QMC driver.
  QMC Execution time = 2.8242e+00 secs
  Total Execution time = 4.7189e+00 secs

=========================================================
  A new xml input file : NiO-fcc-S8-dmc.s003.cont.xml

Use --enable-timers=<value> command line option to increase or decrease level of timing information
Stack timer profile
Timer         Inclusive_time  Exclusive_time  Calls       Time_per_call
Total           22.4866     0.0062              1      22.486639932
  DMCBatched     2.8260     2.8260              1       2.825991094
  Startup       17.7677    17.7677              1      17.767689320
  VMCBatched     1.8868     1.8868              2       0.943388195

QMCPACK execution completed successfully
FLUX-RUN END qmcpack-iter-1
FLUX-RUN START qmcpack-iter-2
WARNING: MPI environment inconsistency?
running program qmcpack compiled with Open MPI v4.1.6 but allocated with PMI (Hydra or MPICH) (np = 704). Try running with `mpirun.openmpi` or load OpenMPI module.

  Input file(s): NiO-fcc-S8-dmc-strongscale.xml 

=====================================================
                    QMCPACK 3.17.1

       (c) Copyright 2003-  QMCPACK developers

                    Please cite:
 J. Kim et al. J. Phys. Cond. Mat. 30 195901 (2018)
      https://doi.org/10.1088/1361-648X/aab9c3

  Git branch: HEAD
  Last git commit: 9d0d968139fc33f71dbf9159f526dd7b47f10a3b
  Last git commit date: Fri Aug 25 07:42:03 2023 -0400
  Last git commit subject: Merge pull request #4711 from QMCPACK/rc_3171
=====================================================
  Global options 

  Total number of MPI ranks = 704
  Number of MPI groups      = 1
  MPI group ID              = 0
  Number of ranks in group  = 704
  MPI ranks per node        = 88
  OMP 1st level threads     = 1
  OMP nested threading disabled or only 1 thread on the 2nd level

  Precision used in this calculation, see definitions in the manual:
  Base precision      = double
  Full precision      = double

  CPU only build
  Real build. QMC_COMPLEX=OFF
  Timer build option is enabled. Current timer level is coarse

=================================================
--- Memory usage report : when QMCPACK starts ---
=================================================
Available memory on node 0, free + buffers :  332527 MiB
Memory footprint by rank 0 on node 0       :      21 MiB
=================================================

  Input XML = NiO-fcc-S8-dmc-strongscale.xml

  Project = NiO-fcc-S8-dmc
  date    = 2025-05-04 23:28:29 UTC
  host    = qmcpack-0


 Random Number
 -------------
  Offset for the random number seeds from input file (mod 1024): 2

  Range of prime numbers to use as seeds over processors and threads = 7-5351


 Lattice
 -------
  Simulation cell radius   = 5.572779 bohr
  Wigner-Seitz cell radius = 5.572779 bohr

  Overwriting global supercell 
  Long-range breakup parameters:
    rc*kc = 15.000000; rc = 5.572779; kc = 2.691655; tol = 0.000300
  KContainer initialised with cutoff 2.691655
   # of K-shell  = 40
   # of K points = 656

  Lattice (bohr):      7.8811000000      7.8811000000      0.0000000000
                      -7.8811000000      7.8811000000      0.0000000000
                       0.0000000000      0.0000000000     15.7622000000

  Boundary Conditions:  p  p  p 

  Volume (bohr^3) = 1958.0352485029

  Reciprocal vectors without 2*pi.
    g_1 =       0.0634429204      0.0634429204     -0.0000000000
    g_2 =      -0.0634429204      0.0634429204      0.0000000000
    g_3 =       0.0000000000     -0.0000000000      0.0634429204

  Metric tensor in real-space.
    h_1 = 124.2234744200 0.0000000000 0.0000000000 
    h_2 = 0.0000000000 124.2234744200 0.0000000000 
    h_3 = 0.0000000000 0.0000000000 248.4469488400 

  Metric tensor in g-space.
    h_1 = 0.3178015893 0.0000000000 0.0000000000 
    h_2 = 0.0000000000 0.3178015893 0.0000000000 
    h_3 = 0.0000000000 0.0000000000 0.1589007947 

 Particle Set
 ------------
  Name: i   Offload : no

  All the species have the same mass 1.0000000000

  Creating Structure Factor for periodic systems 2.6916551542
  Particle set size: 32   Groups : 2


 Particle Set
 ------------
  Name: e   Offload : no

  All the species have the same mass 1.0000000000

  Creating Structure Factor for periodic systems 2.6916551542
  Particle set size: 384   Groups : 2


 Many-body wavefunction
 -------------------
  Name: psi0   Tasking: no

WARNING !!!!!!! Deprecated input style: creating SPO set inside determinantset. Support for this usage will soon be removed. SPO sets should be built outside using sposet_collection.
  Created SPOSet builder named 'einspline' of type einspline

   Single Slater determinant
   -------------------------

     Determinant
     -----------
      Name: updet   Spin group: 0   SPO name: updet

WARNING !!!!!!! Deprecated input style: creating SPO set inside determinantset. Support for this usage will soon be removed. SPO sets should be built outside using sposet_collection.
      Create a new SPO set updet

     Single particle orbitals (SPO)
     ------------------------------
      Name: updet   Type: spline   Builder class name: EinsplineSetBuilder

  TileMatrix = 
 [  1  1  1
    0  2 -2
    1 -1 -1 ]
  Reading 192 orbitals from HDF5 file.
  HDF5 orbital file version 2.1.0
  Reading orbital file in ESHDF format.
  ESHDF orbital file version 2.1.0
  Lattice = 
    [  3.940550  3.940550  7.881100
       0.000000  3.940550 -3.940550
       3.940550  0.000000 -3.940550 ]
  SuperLattice = 
    [  7.881100  7.881100  0.000000
      -7.881100  7.881100  0.000000
       0.000000  0.000000 15.762200 ]

bands=29, elecs=384, spins=2, twists=8, muffin tins=0, core states=0
atomic orbital=0
Atom type(0) = 8
Atom type(1) = 8
Atom type(2) = 28
Atom type(3) = 28
   Skip initialization of the density
TIMER  EinsplineSetBuilder::ReadOrbitalInfo 0.0014208740
TIMER  EinsplineSetBuilder::BroadcastOrbitalInfo 0.0043552300
Found 1 distinct supercell twists.
number of things
8
8
Super twist #0:  [   0.00000   0.00000   0.00000 ]
WARNING twist attribute exists. twistnum attribute ignored. To prevent this message, remove twistnum from input.
  Using supercell twist 0:  [   0.00000   0.00000   0.00000]
Using 1 copies of twist angle [ 0.000,  0.000,  0.000]
Using 2 copies of twist angle [ 0.000,  0.250, -0.250]
Using 1 copies of twist angle [ 0.000,  0.500,  0.500]
Using 1 copies of twist angle [ 0.500,  0.000,  0.500]
Using 2 copies of twist angle [ 0.500,  0.250,  0.250]
Using 1 copies of twist angle [ 0.500,  0.500,  0.000]
Using complex splines.
174 complex-valued orbitals supplied by h5 can be expanded up to 232 SPOs.
Sorting the bands now:
  Occupying bands based on energy in mode "ground"
We will read 144 distinct complex-valued orbitals from h5.
There are 0 core states and 144 valence states.
    Using real valued spline SPOs with complex single precision storage (C2R).
    Running on CPU.
BandInfoGroup::selectBands bigspace has 174 distinct orbitals 
BandInfoGroup::selectBands using distinct orbitals [0,144)
  Number of distinct bands 144
  First Band index 0
  First SPO index 0
  Size of SPOs 192
  ClassName = SplineC2R
  Using complex einspline table
NumDistinctOrbitals 144 numOrbs = 192
B-spline mesh factor is 0.9000000000
B-spline mesh size is (112, 66, 66)
Maxmimum number of Gvecs 35419
  Using meshsize=               112                66                66
  vs input meshsize=               112                66                66
MEMORY 601 MB allocated for the coefficients in 3D spline orbital representation
Start transforming plane waves to 3D B-Splines.
  Time to gather the table = 5.7346504690
  Time to bcast the table = 1.0200228540
  SplineSetReader initialize_spline_pio 8.3131617520 sec
Time spent in creating B-spline SPOs 8.7355549420sec
      Using rank-32 delayed update
      Using walker batching.
      Running OpenMP offload code path on CPU. Only SM1 update is supported. delay_rank is ignored.


     Determinant
     -----------
      Name: downdet   Spin group: 1   SPO name: downdet

WARNING !!!!!!! Deprecated input style: creating SPO set inside determinantset. Support for this usage will soon be removed. SPO sets should be built outside using sposet_collection.
      Create a new SPO set downdet

     Single particle orbitals (SPO)
     ------------------------------
      Name: downdet   Type: spline   Builder class name: EinsplineSetBuilder

174 complex-valued orbitals supplied by h5 can be expanded up to 232 SPOs.
Sorting the bands now:
  Occupying bands based on energy in mode "ground"
We will read 144 distinct complex-valued orbitals from h5.
There are 0 core states and 144 valence states.
BandInfoGroup::selectBands bigspace has 174 distinct orbitals 
BandInfoGroup::selectBands using distinct orbitals [0,144)
  Number of distinct bands 144
  First Band index 0
  First SPO index 0
  Size of SPOs 192
  ClassName = SplineC2R
  Using complex einspline table
NumDistinctOrbitals 144 numOrbs = 192
B-spline mesh factor is 0.9000000000
B-spline mesh size is (112, 66, 66)
Maxmimum number of Gvecs 35419
  Using meshsize=               112                66                66
  vs input meshsize=               112                66                66
MEMORY 601 MB allocated for the coefficients in 3D spline orbital representation
Start transforming plane waves to 3D B-Splines.
  Time to gather the table = 5.5585159290
  Time to bcast the table = 1.0036341250
  SplineSetReader initialize_spline_pio 8.1597325030 sec
Time spent in creating B-spline SPOs 8.5352515870sec
      Using rank-32 delayed update
      Using walker batching.
      Running OpenMP offload code path on CPU. Only SM1 update is supported. delay_rank is ignored.

  Added a fermionic WaveFunctionComponent SlaterDet

   Jastrow
   -------
    Name: J2   Type: Two-Body   Function: Bspline

    Radial function for species: u - u
     Number of parameters: 10
     Cusp: -0.2500000000
     Cutoff radius: 5.5727792532

     Name                        Value Type Recompute Use Index
     ---- ---------------------------- ---- --------- --- -----
     uu_0                 2.862236e-01    1         1  ON     0
     uu_1                 1.947737e-01    1         1  ON     1
     uu_2                 1.319545e-01    1         1  ON     2
     uu_3                 8.893395e-02    1         1  ON     3
     uu_4                 5.695576e-02    1         1  ON     4
     uu_5                 3.565958e-02    1         1  ON     5
     uu_6                 2.206950e-02    1         1  ON     6
     uu_7                 1.296086e-02    1         1  ON     7
     uu_8                 6.601007e-03    1         1  ON     8
     uu_9                 2.787144e-03    1         1  ON     9

    Radial function for species: u - d
     Number of parameters: 10
     Cusp: -0.5
     Cutoff radius: 5.57278

     Name                        Value Type Recompute Use Index
     ---- ---------------------------- ---- --------- --- -----
     ud_0                 3.689310e-01    1         1  ON     0
     ud_1                 2.226722e-01    1         1  ON     1
     ud_2                 1.484297e-01    1         1  ON     2
     ud_3                 9.617039e-02    1         1  ON     3
     ud_4                 5.918787e-02    1         1  ON     4
     ud_5                 3.660856e-02    1         1  ON     5
     ud_6                 2.262412e-02    1         1  ON     6
     ud_7                 1.322280e-02    1         1  ON     7
     ud_8                 6.736329e-03    1         1  ON     8
     ud_9                 2.871931e-03    1         1  ON     9


   Jastrow
   -------
    Name: J1   Type: One-Body   Function: Bspline

    Radial function for element: O - e
     Number of parameters: 10
     Cusp: 0
     Cutoff radius: 4.82617

     Name                        Value Type Recompute Use Index
     ---- ---------------------------- ---- --------- --- -----
      O_0                -2.249113e-01    1         1  ON     0
      O_1                -1.847495e-01    1         1  ON     1
      O_2                -1.154814e-01    1         1  ON     2
      O_3                -4.000123e-02    1         1  ON     3
      O_4                 1.731711e-02    1         1  ON     4
      O_5                 5.360132e-02    1         1  ON     5
      O_6                 5.983041e-02    1         1  ON     6
      O_7                 3.956000e-02    1         1  ON     7
      O_8                 1.739980e-02    1         1  ON     8
      O_9                 5.162164e-03    1         1  ON     9

    Radial function for element: Ni - e
     Number of parameters: 10
     Cusp: 0
     Cutoff radius: 4.82617

     Name                        Value Type Recompute Use Index
     ---- ---------------------------- ---- --------- --- -----
     Ni_0                -1.644855e+00    1         1  ON     0
     Ni_1                -1.470659e+00    1         1  ON     1
     Ni_2                -1.078894e+00    1         1  ON     2
     Ni_3                -6.878965e-01    1         1  ON     3
     Ni_4                -3.907005e-01    1         1  ON     4
     Ni_5                -1.962103e-01    1         1  ON     5
     Ni_6                -8.512756e-02    1         1  ON     6
     Ni_7                -2.752357e-02    1         1  ON     7
     Ni_8                -4.017983e-03    1         1  ON     8
     Ni_9                 7.665934e-04    1         1  ON     9

  Adding psi0 TrialWaveFunction to the pool

 Hamiltonian and observables
 ---------------------------
  Name: h0

  QMCHamiltonian::addOperator Kinetic to H, physical Hamiltonian 

   Pseudo Potential
   ----------------
    Name: PseudoPot   Wavefunction : psi0


  Adding pseudopotential for O
   Linear grid  ri=0 rf=10 npts = 10001
    ECPComponentBuilder::buildSemiLocalAndLocal 
WARNING Nrule was not determined from qmcpack input or pseudopotential file. Setting sensible default.
    Assuming Hartree unit
 l-local setting found in pseudopotential file and used.
   Number of angular momentum channels 2
   Maximum angular momentum channel (Lmax) 1
   Creating a Linear Grid Rmax=0.927291
  Using global grid with delta = 0.001
   Making L=0 a local potential with a radial cutoff of 9.999
  Quadrature Nrule: 4
    Non-local pseudopotential parameters
    Maximum angular momentum = 1
    Number of non-local channels = 1
       l(0)=1
    Cutoff radius = 0.928
    Number of spherical integration grid points = 12
    Spherical grid and weights: 
                        1                 0                 0       0.08333333333
                       -1   1.224646799e-16                 0       0.08333333333
             0.4472135955       0.894427191                 0       0.08333333333
            -0.4472135955      0.7236067977      0.5257311121       0.08333333333
             0.4472135955      0.2763932023      0.8506508084       0.08333333333
            -0.4472135955     -0.2763932023      0.8506508084       0.08333333333
             0.4472135955     -0.7236067977      0.5257311121       0.08333333333
            -0.4472135955      -0.894427191   1.095357397e-16       0.08333333333
             0.4472135955     -0.7236067977     -0.5257311121       0.08333333333
            -0.4472135955     -0.2763932023     -0.8506508084       0.08333333333
             0.4472135955      0.2763932023     -0.8506508084       0.08333333333
            -0.4472135955      0.7236067977     -0.5257311121       0.08333333333
    Maximum cutoff radius 0.928

  Adding pseudopotential for Ni
   Linear grid  ri=0 rf=10 npts = 10001
    ECPComponentBuilder::buildSemiLocalAndLocal 
WARNING Nrule was not determined from qmcpack input or pseudopotential file. Setting sensible default.
    Assuming Hartree unit
 l-local setting found in pseudopotential file and used.
   Number of angular momentum channels 3
   Maximum angular momentum channel (Lmax) 2
   Creating a Linear Grid Rmax=0.802458
  Using global grid with delta = 0.001
   Making L=1 a local potential with a radial cutoff of 9.999
  Quadrature Nrule: 4
    Non-local pseudopotential parameters
    Maximum angular momentum = 2
    Number of non-local channels = 2
       l(0)=0
       l(1)=2
    Cutoff radius = 0.803
    Number of spherical integration grid points = 12
    Spherical grid and weights: 
                        1                 0                 0       0.08333333333
                       -1   1.224646799e-16                 0       0.08333333333
             0.4472135955       0.894427191                 0       0.08333333333
            -0.4472135955      0.7236067977      0.5257311121       0.08333333333
             0.4472135955      0.2763932023      0.8506508084       0.08333333333
            -0.4472135955     -0.2763932023      0.8506508084       0.08333333333
             0.4472135955     -0.7236067977      0.5257311121       0.08333333333
            -0.4472135955      -0.894427191   1.095357397e-16       0.08333333333
             0.4472135955     -0.7236067977     -0.5257311121       0.08333333333
            -0.4472135955     -0.2763932023     -0.8506508084       0.08333333333
             0.4472135955      0.2763932023     -0.8506508084       0.08333333333
            -0.4472135955      0.7236067977     -0.5257311121       0.08333333333
    Maximum cutoff radius 0.803

  Creating CoulombHandler with the Esler Optimized Breakup. 
  KContainer initialised with cutoff 15.0670289
   # of K-shell  = 1194
   # of K points = 113346

  NUMBER OF OPT_BREAK KVECS = 41267457674
 finding kc:  2.691655154 , 2.691655154
  LRBreakp parameter Kc =2.691655154
    Continuum approximation in k = [15.0670289,1076.662062)

   LR Breakup chi^2 = 2.00846e-16
   Constant of PBCAB 962.12
  Rcut                5.5728
  Maximum K shell     39
  Number of k vectors 656
    CoulombPBCAB::add 
 Setting a linear grid=[0,5.5728) number of grid =5573
    Creating the short-range pseudopotential for species 0
    Creating the short-range pseudopotential for species 1
  QMCHamiltonian::addOperator LocalECP to H, physical Hamiltonian 

  Using NonLocalECP potential 
    Maximum grid on a sphere for NonLocalECPotential: 12
    Using batched ratio computing in NonLocalECP
  QMCHamiltonian::addOperator NonLocalECP to H, physical Hamiltonian 

   Coulomb Potential
   -----------------
    Name: IonIon   Type: AA   PBC: yes

  Clone CoulombHandler. 
   PBCAA self-interaction term -1570.7
   PBCAA total constant -2051.7
Checking ion-ion Ewald energy against reference...
  Check passed.
  Maximum K shell 39
  Number of k vectors 656
  Fixed Coulomb potential for i
    e-e Madelung Const. =-0.10848165
    Vtot     =-1914.3872
  QMCHamiltonian::addOperator IonIon to H, physical Hamiltonian 
QMCHamiltonian::addOperatorType added type coulomb named IonIon

   Coulomb Potential
   -----------------
    Name: ElecElec   Type: AA   PBC: yes

  Clone CoulombHandler. 
   PBCAA self-interaction term -104.71024
   PBCAA total constant -585.77075
  Maximum K shell 39
  Number of k vectors 656
  Fixed Coulomb potential for e
    e-e Madelung Const. =-0.10848165
    Vtot     =0
  QMCHamiltonian::addOperator ElecElec to H, physical Hamiltonian 
QMCHamiltonian::addOperatorType added type coulomb named ElecElec

  QMCHamiltonian::add2WalkerProperty added
    5 to P::PropertyList 
    0 to P::Collectables 
    starting Index of the observables in P::PropertyList = 9
ParticleSetPool::randomize 1 ParticleSet.
<init source="i" target="e">
</init>
  Initialization Execution time = 17.81 secs
=========================================================
 Summary of QMC systems 
=========================================================
ParticleSetPool has: 

  ParticleSet 'e' contains 384 particles :  u(192) d(192)

    u -2.8980970917e+00  1.2723527259e+01  4.7049967489e+00
    u  2.6433543703e+00  4.8306803474e+00  4.0376115853e+00
    u  2.6977153195e+00  4.2291160670e+00  4.8660558456e+00
    u -7.2871890222e+00  7.3566860185e+00  1.0459031486e+01
    u -9.9708743990e-01  1.4647431366e+01  1.1324078881e+01
    u  6.5424419981e+00  8.6513182115e+00  1.2136654998e+01
    u  1.2691298651e+00  3.4298648034e+00  8.6640300760e+00
    u -2.7991323100e-01  4.9056467590e+00  6.6667251331e+00
    u -3.6815222525e-02  2.8308325366e+00  8.9998677504e+00
    u  6.4845024407e-01  9.1628143405e+00  4.5895416169e+00
    (... and 374 more particle positions ...)

  Distance table for similar particles (A-A):
    source/target: e
    Using structure-of-arrays (SoA) data layout
    Distance computations use general periodic cell in 3D without corner image checks.

  Distance table for dissimilar particles (A-B):
    source: i  target: e
    Using structure-of-arrays (SoA) data layout
    Distance computations use general periodic cell in 3D without corner image checks.


  ParticleSet 'i' contains 32 particles :  O(16) Ni(16)

    O  3.9405500000e+00  3.9405500000e+00  3.9405500000e+00
    O  0.0000000000e+00  0.0000000000e+00  1.1821650000e+01
    O  0.0000000000e+00  3.9405500000e+00  7.8811000000e+00
    O  0.0000000000e+00  7.8811000000e+00  3.9405500000e+00
    O  3.9405500000e+00  7.8811000000e+00  0.0000000000e+00
    O -3.9405500000e+00  3.9405500000e+00  1.1821650000e+01
    O -3.9405500000e+00  7.8811000000e+00  7.8811000000e+00
    O  0.0000000000e+00  1.1821650000e+01  0.0000000000e+00
    O  0.0000000000e+00  0.0000000000e+00  3.9405500000e+00
    O  0.0000000000e+00  3.9405500000e+00  0.0000000000e+00
    (... and 22 more particle positions ...)

  Distance table for similar particles (A-A):
    source/target: i
    Using structure-of-arrays (SoA) data layout
    Distance computations use general periodic cell in 3D without corner image checks.


  Hamiltonian h0
  Kinetic         Kinetic energy
  LocalECP        CoulombPBCAB potential source: i
  NonLocalECP     NonLocalECPotential: i
  IonIon          CoulombPBCAA potential: i_i
  ElecElec        CoulombPBCAA potential: e_e


========================================
  Reading VMC driver XML input section
========================================
<estimator> nodes not contained in <estimators>...</estimators> is a deprecated input xml idiom
  Random walking without drift
EstimatorManager setup for this section:
  Main Estimator:  LocalEnergy

=========================================================
  Start VMCBatched
  File Root NiO-fcc-S8-dmc.s001
=========================================================
==============================================================
--- Memory usage report : VMCBatched before initialization ---
==============================================================
Available memory on node 0, free + buffers :  224198 MiB
Memory footprint by rank 0 on node 0       :    1291 MiB
==============================================================
VMCBatched Driver running with
             total_walkers     = 704
             walkers_per_rank  = [1(x704)]
             num_crowds        = 1
  on rank 0, walkers_per_crowd = [1]

===================================================================
--- Memory usage report : VMCBatched after initialLogEvaluation ---
===================================================================
Available memory on node 0, free + buffers :  224164 MiB
Memory footprint by rank 0 on node 0       :    1294 MiB
===================================================================
Warm-up is completed!
=====================================================
--- Memory usage report : VMCBatched after Warmup ---
=====================================================
Available memory on node 0, free + buffers :  224159 MiB
Memory footprint by rank 0 on node 0       :    1294 MiB
=====================================================
====================================================
  End of a VMC block
    QMC counter        = 1
    time step          = 1
    reference energy   = -2965.72
    reference variance = 108.045
====================================================
=============================================
--- Memory usage report : VMCBatched ends ---
=============================================
Available memory on node 0, free + buffers :  224106 MiB
Memory footprint by rank 0 on node 0       :    1321 MiB
=============================================
  Carry over 704 walker configurations to the next QMC driver.
  QMC Execution time = 1.1679e+00 secs

========================================
  Reading VMC driver XML input section
========================================
<estimator> nodes not contained in <estimators>...</estimators> is a deprecated input xml idiom
  Random walking with drift
EstimatorManager setup for this section:
  Main Estimator:  LocalEnergy

=========================================================
  Start VMCBatched
  File Root NiO-fcc-S8-dmc.s002
=========================================================
==============================================================
--- Memory usage report : VMCBatched before initialization ---
==============================================================
Available memory on node 0, free + buffers :  224108 MiB
Memory footprint by rank 0 on node 0       :    1321 MiB
==============================================================
VMCBatched Driver running with
             total_walkers     = 704
             walkers_per_rank  = [1(x704)]
             num_crowds        = 1
  on rank 0, walkers_per_crowd = [1]

===================================================================
--- Memory usage report : VMCBatched after initialLogEvaluation ---
===================================================================
Available memory on node 0, free + buffers :  224107 MiB
Memory footprint by rank 0 on node 0       :    1321 MiB
===================================================================
Warm-up is completed!
=====================================================
--- Memory usage report : VMCBatched after Warmup ---
=====================================================
Available memory on node 0, free + buffers :  224107 MiB
Memory footprint by rank 0 on node 0       :    1321 MiB
=====================================================
====================================================
  End of a VMC block
    QMC counter        = 2
    time step          = 1
    reference energy   = -2966.79
    reference variance = 119.882
====================================================
=============================================
--- Memory usage report : VMCBatched ends ---
=============================================
Available memory on node 0, free + buffers :  224101 MiB
Memory footprint by rank 0 on node 0       :    1325 MiB
=============================================
  Carry over 704 walker configurations to the next QMC driver.
  QMC Execution time = 8.7307e-01 secs

========================================
  Reading DMC driver XML input section
========================================
<estimator> nodes not contained in <estimators>...</estimators> is a deprecated input xml idiom
  Using Non-local T-moves v0, M. Casula, PRB 74, 161102(R) (2006)
EstimatorManager setup for this section:
  Main Estimator:  LocalEnergy

=========================================================
  Start DMCBatched
  File Root NiO-fcc-S8-dmc.s003
=========================================================
==============================================================
--- Memory usage report : DMCBatched before initialization ---
==============================================================
Available memory on node 0, free + buffers :  224100 MiB
Memory footprint by rank 0 on node 0       :    1325 MiB
==============================================================
DMCBatched Driver running with
             total_walkers     = 704
             walkers_per_rank  = [1(x704)]
             num_crowds        = 1
  on rank 0, walkers_per_crowd = [1]

  Creating the branching engine and walker controler
    Reference energy is updated using the unlimited_history scheme
  WalkerControl parameters 
    maxCopy = 2
    Max Walkers per MPI rank 3
    Min Walkers per MPI rank 1
    Using non-blocking send/recv
    Disable branching for debugging as the user input request.
  Fluctuating population
  Persistent walkers are killed after 10 MC sweeps
  BranchInterval = 1
  Steps per block = 5
  Number of blocks = 10

  DMC Engine Initialization = 2.1428e-04 secs
  START ALL OVER 
  QMC counter             = -1
  time step               = 1.0000e-03
  effective time step     = 1.0000e-03
  trial energy            = -2.9666e+03
  reference energy        = -2.9666e+03
  reference variance      = 9.5442e+01
  Feedback                = 1.0000e+00
  target walkers          = 704
  branching cutoff scheme = classic
  branch cutoff, max      = 9.5442e+02 1.4316e+03
  QMC Status (BranchMode) = 0000001101
===================================================================
--- Memory usage report : DMCBatched after initialLogEvaluation ---
===================================================================
Available memory on node 0, free + buffers :  224099 MiB
Memory footprint by rank 0 on node 0       :    1325 MiB
===================================================================
====================================================
  End of a DMC block
    QMC counter                   = -1
    time step                     = 0.001
    effective time step           = 0.000998042
    trial energy                  = -2968.19
    reference energy              = -2966.58
    reference variance            = 95.4421
    target walkers                = 704
    branch cutoff                 = 954.421 1431.63
    Feedback                      = 1
    QMC Status (BranchMode)       = 0000001101
====================================================
=============================================
--- Memory usage report : DMCBatched ends ---
=============================================
Available memory on node 0, free + buffers :  224110 MiB
Memory footprint by rank 0 on node 0       :    1325 MiB
=============================================
  Carry over 704 walker configurations to the next QMC driver.
  QMC Execution time = 3.0413e+00 secs
  Total Execution time = 5.0907e+00 secs

=========================================================
  A new xml input file : NiO-fcc-S8-dmc.s003.cont.xml

Use --enable-timers=<value> command line option to increase or decrease level of timing information
Stack timer profile
Timer         Inclusive_time  Exclusive_time  Calls       Time_per_call
Total           23.0131     0.0019              1      23.013050949
  DMCBatched     3.0428     3.0428              1       3.042794275
  Startup       17.9223    17.9223              1      17.922320109
  VMCBatched     2.0460     2.0460              2       1.023001141

QMCPACK execution completed successfully
FLUX-RUN END qmcpack-iter-2
FLUX-RUN START qmcpack-iter-3
WARNING: MPI environment inconsistency?
running program qmcpack compiled with Open MPI v4.1.6 but allocated with PMI (Hydra or MPICH) (np = 704). Try running with `mpirun.openmpi` or load OpenMPI module.

  Input file(s): NiO-fcc-S8-dmc-strongscale.xml 

=====================================================
                    QMCPACK 3.17.1

       (c) Copyright 2003-  QMCPACK developers

                    Please cite:
 J. Kim et al. J. Phys. Cond. Mat. 30 195901 (2018)
      https://doi.org/10.1088/1361-648X/aab9c3

  Git branch: HEAD
  Last git commit: 9d0d968139fc33f71dbf9159f526dd7b47f10a3b
  Last git commit date: Fri Aug 25 07:42:03 2023 -0400
  Last git commit subject: Merge pull request #4711 from QMCPACK/rc_3171
=====================================================
  Global options 

  Total number of MPI ranks = 704
  Number of MPI groups      = 1
  MPI group ID              = 0
  Number of ranks in group  = 704
  MPI ranks per node        = 88
  OMP 1st level threads     = 1
  OMP nested threading disabled or only 1 thread on the 2nd level

  Precision used in this calculation, see definitions in the manual:
  Base precision      = double
  Full precision      = double

  CPU only build
  Real build. QMC_COMPLEX=OFF
  Timer build option is enabled. Current timer level is coarse

=================================================
--- Memory usage report : when QMCPACK starts ---
=================================================
Available memory on node 0, free + buffers :  332541 MiB
Memory footprint by rank 0 on node 0       :      22 MiB
=================================================

  Input XML = NiO-fcc-S8-dmc-strongscale.xml

  Project = NiO-fcc-S8-dmc
  date    = 2025-05-04 23:28:56 UTC
  host    = qmcpack-0


 Random Number
 -------------
  Offset for the random number seeds from input file (mod 1024): 2

  Range of prime numbers to use as seeds over processors and threads = 7-5351


 Lattice
 -------
  Simulation cell radius   = 5.572779 bohr
  Wigner-Seitz cell radius = 5.572779 bohr

  Overwriting global supercell 
  Long-range breakup parameters:
    rc*kc = 15.000000; rc = 5.572779; kc = 2.691655; tol = 0.000300
  KContainer initialised with cutoff 2.691655
   # of K-shell  = 40
   # of K points = 656

  Lattice (bohr):      7.8811000000      7.8811000000      0.0000000000
                      -7.8811000000      7.8811000000      0.0000000000
                       0.0000000000      0.0000000000     15.7622000000

  Boundary Conditions:  p  p  p 

  Volume (bohr^3) = 1958.0352485029

  Reciprocal vectors without 2*pi.
    g_1 =       0.0634429204      0.0634429204     -0.0000000000
    g_2 =      -0.0634429204      0.0634429204      0.0000000000
    g_3 =       0.0000000000     -0.0000000000      0.0634429204

  Metric tensor in real-space.
    h_1 = 124.2234744200 0.0000000000 0.0000000000 
    h_2 = 0.0000000000 124.2234744200 0.0000000000 
    h_3 = 0.0000000000 0.0000000000 248.4469488400 

  Metric tensor in g-space.
    h_1 = 0.3178015893 0.0000000000 0.0000000000 
    h_2 = 0.0000000000 0.3178015893 0.0000000000 
    h_3 = 0.0000000000 0.0000000000 0.1589007947 

 Particle Set
 ------------
  Name: i   Offload : no

  All the species have the same mass 1.0000000000

  Creating Structure Factor for periodic systems 2.6916551542
  Particle set size: 32   Groups : 2


 Particle Set
 ------------
  Name: e   Offload : no

  All the species have the same mass 1.0000000000

  Creating Structure Factor for periodic systems 2.6916551542
  Particle set size: 384   Groups : 2


 Many-body wavefunction
 -------------------
  Name: psi0   Tasking: no

WARNING !!!!!!! Deprecated input style: creating SPO set inside determinantset. Support for this usage will soon be removed. SPO sets should be built outside using sposet_collection.
  Created SPOSet builder named 'einspline' of type einspline

   Single Slater determinant
   -------------------------

     Determinant
     -----------
      Name: updet   Spin group: 0   SPO name: updet

WARNING !!!!!!! Deprecated input style: creating SPO set inside determinantset. Support for this usage will soon be removed. SPO sets should be built outside using sposet_collection.
      Create a new SPO set updet

     Single particle orbitals (SPO)
     ------------------------------
      Name: updet   Type: spline   Builder class name: EinsplineSetBuilder

  TileMatrix = 
 [  1  1  1
    0  2 -2
    1 -1 -1 ]
  Reading 192 orbitals from HDF5 file.
  HDF5 orbital file version 2.1.0
  Reading orbital file in ESHDF format.
  ESHDF orbital file version 2.1.0
  Lattice = 
    [  3.940550  3.940550  7.881100
       0.000000  3.940550 -3.940550
       3.940550  0.000000 -3.940550 ]
  SuperLattice = 
    [  7.881100  7.881100  0.000000
      -7.881100  7.881100  0.000000
       0.000000  0.000000 15.762200 ]

bands=29, elecs=384, spins=2, twists=8, muffin tins=0, core states=0
atomic orbital=0
Atom type(0) = 8
Atom type(1) = 8
Atom type(2) = 28
Atom type(3) = 28
   Skip initialization of the density
TIMER  EinsplineSetBuilder::ReadOrbitalInfo 0.0015010200
TIMER  EinsplineSetBuilder::BroadcastOrbitalInfo 0.0029003780
Found 1 distinct supercell twists.
number of things
8
8
Super twist #0:  [   0.00000   0.00000   0.00000 ]
WARNING twist attribute exists. twistnum attribute ignored. To prevent this message, remove twistnum from input.
  Using supercell twist 0:  [   0.00000   0.00000   0.00000]
Using 1 copies of twist angle [ 0.000,  0.000,  0.000]
Using 2 copies of twist angle [ 0.000,  0.250, -0.250]
Using 1 copies of twist angle [ 0.000,  0.500,  0.500]
Using 1 copies of twist angle [ 0.500,  0.000,  0.500]
Using 2 copies of twist angle [ 0.500,  0.250,  0.250]
Using 1 copies of twist angle [ 0.500,  0.500,  0.000]
Using complex splines.
174 complex-valued orbitals supplied by h5 can be expanded up to 232 SPOs.
Sorting the bands now:
  Occupying bands based on energy in mode "ground"
We will read 144 distinct complex-valued orbitals from h5.
There are 0 core states and 144 valence states.
    Using real valued spline SPOs with complex single precision storage (C2R).
    Running on CPU.
BandInfoGroup::selectBands bigspace has 174 distinct orbitals 
BandInfoGroup::selectBands using distinct orbitals [0,144)
  Number of distinct bands 144
  First Band index 0
  First SPO index 0
  Size of SPOs 192
  ClassName = SplineC2R
  Using complex einspline table
NumDistinctOrbitals 144 numOrbs = 192
B-spline mesh factor is 0.9000000000
B-spline mesh size is (112, 66, 66)
Maxmimum number of Gvecs 35419
  Using meshsize=               112                66                66
  vs input meshsize=               112                66                66
MEMORY 601 MB allocated for the coefficients in 3D spline orbital representation
Start transforming plane waves to 3D B-Splines.
  Time to gather the table = 5.6836985830
  Time to bcast the table = 1.0036882600
  SplineSetReader initialize_spline_pio 8.2478444820 sec
Time spent in creating B-spline SPOs 8.6724548120sec
      Using rank-32 delayed update
      Using walker batching.
      Running OpenMP offload code path on CPU. Only SM1 update is supported. delay_rank is ignored.


     Determinant
     -----------
      Name: downdet   Spin group: 1   SPO name: downdet

WARNING !!!!!!! Deprecated input style: creating SPO set inside determinantset. Support for this usage will soon be removed. SPO sets should be built outside using sposet_collection.
      Create a new SPO set downdet

     Single particle orbitals (SPO)
     ------------------------------
      Name: downdet   Type: spline   Builder class name: EinsplineSetBuilder

174 complex-valued orbitals supplied by h5 can be expanded up to 232 SPOs.
Sorting the bands now:
  Occupying bands based on energy in mode "ground"
We will read 144 distinct complex-valued orbitals from h5.
There are 0 core states and 144 valence states.
BandInfoGroup::selectBands bigspace has 174 distinct orbitals 
BandInfoGroup::selectBands using distinct orbitals [0,144)
  Number of distinct bands 144
  First Band index 0
  First SPO index 0
  Size of SPOs 192
  ClassName = SplineC2R
  Using complex einspline table
NumDistinctOrbitals 144 numOrbs = 192
B-spline mesh factor is 0.9000000000
B-spline mesh size is (112, 66, 66)
Maxmimum number of Gvecs 35419
  Using meshsize=               112                66                66
  vs input meshsize=               112                66                66
MEMORY 601 MB allocated for the coefficients in 3D spline orbital representation
Start transforming plane waves to 3D B-Splines.
  Time to gather the table = 5.6398017960
  Time to bcast the table = 0.9881017950
  SplineSetReader initialize_spline_pio 8.1663750920 sec
Time spent in creating B-spline SPOs 8.5421652060sec
      Using rank-32 delayed update
      Using walker batching.
      Running OpenMP offload code path on CPU. Only SM1 update is supported. delay_rank is ignored.

  Added a fermionic WaveFunctionComponent SlaterDet

   Jastrow
   -------
    Name: J2   Type: Two-Body   Function: Bspline

    Radial function for species: u - u
     Number of parameters: 10
     Cusp: -0.2500000000
     Cutoff radius: 5.5727792532

     Name                        Value Type Recompute Use Index
     ---- ---------------------------- ---- --------- --- -----
     uu_0                 2.862236e-01    1         1  ON     0
     uu_1                 1.947737e-01    1         1  ON     1
     uu_2                 1.319545e-01    1         1  ON     2
     uu_3                 8.893395e-02    1         1  ON     3
     uu_4                 5.695576e-02    1         1  ON     4
     uu_5                 3.565958e-02    1         1  ON     5
     uu_6                 2.206950e-02    1         1  ON     6
     uu_7                 1.296086e-02    1         1  ON     7
     uu_8                 6.601007e-03    1         1  ON     8
     uu_9                 2.787144e-03    1         1  ON     9

    Radial function for species: u - d
     Number of parameters: 10
     Cusp: -0.5
     Cutoff radius: 5.57278

     Name                        Value Type Recompute Use Index
     ---- ---------------------------- ---- --------- --- -----
     ud_0                 3.689310e-01    1         1  ON     0
     ud_1                 2.226722e-01    1         1  ON     1
     ud_2                 1.484297e-01    1         1  ON     2
     ud_3                 9.617039e-02    1         1  ON     3
     ud_4                 5.918787e-02    1         1  ON     4
     ud_5                 3.660856e-02    1         1  ON     5
     ud_6                 2.262412e-02    1         1  ON     6
     ud_7                 1.322280e-02    1         1  ON     7
     ud_8                 6.736329e-03    1         1  ON     8
     ud_9                 2.871931e-03    1         1  ON     9


   Jastrow
   -------
    Name: J1   Type: One-Body   Function: Bspline

    Radial function for element: O - e
     Number of parameters: 10
     Cusp: 0
     Cutoff radius: 4.82617

     Name                        Value Type Recompute Use Index
     ---- ---------------------------- ---- --------- --- -----
      O_0                -2.249113e-01    1         1  ON     0
      O_1                -1.847495e-01    1         1  ON     1
      O_2                -1.154814e-01    1         1  ON     2
      O_3                -4.000123e-02    1         1  ON     3
      O_4                 1.731711e-02    1         1  ON     4
      O_5                 5.360132e-02    1         1  ON     5
      O_6                 5.983041e-02    1         1  ON     6
      O_7                 3.956000e-02    1         1  ON     7
      O_8                 1.739980e-02    1         1  ON     8
      O_9                 5.162164e-03    1         1  ON     9

    Radial function for element: Ni - e
     Number of parameters: 10
     Cusp: 0
     Cutoff radius: 4.82617

     Name                        Value Type Recompute Use Index
     ---- ---------------------------- ---- --------- --- -----
     Ni_0                -1.644855e+00    1         1  ON     0
     Ni_1                -1.470659e+00    1         1  ON     1
     Ni_2                -1.078894e+00    1         1  ON     2
     Ni_3                -6.878965e-01    1         1  ON     3
     Ni_4                -3.907005e-01    1         1  ON     4
     Ni_5                -1.962103e-01    1         1  ON     5
     Ni_6                -8.512756e-02    1         1  ON     6
     Ni_7                -2.752357e-02    1         1  ON     7
     Ni_8                -4.017983e-03    1         1  ON     8
     Ni_9                 7.665934e-04    1         1  ON     9

  Adding psi0 TrialWaveFunction to the pool

 Hamiltonian and observables
 ---------------------------
  Name: h0

  QMCHamiltonian::addOperator Kinetic to H, physical Hamiltonian 

   Pseudo Potential
   ----------------
    Name: PseudoPot   Wavefunction : psi0


  Adding pseudopotential for O
   Linear grid  ri=0 rf=10 npts = 10001
    ECPComponentBuilder::buildSemiLocalAndLocal 
WARNING Nrule was not determined from qmcpack input or pseudopotential file. Setting sensible default.
    Assuming Hartree unit
 l-local setting found in pseudopotential file and used.
   Number of angular momentum channels 2
   Maximum angular momentum channel (Lmax) 1
   Creating a Linear Grid Rmax=0.927291
  Using global grid with delta = 0.001
   Making L=0 a local potential with a radial cutoff of 9.999
  Quadrature Nrule: 4
    Non-local pseudopotential parameters
    Maximum angular momentum = 1
    Number of non-local channels = 1
       l(0)=1
    Cutoff radius = 0.928
    Number of spherical integration grid points = 12
    Spherical grid and weights: 
                        1                 0                 0       0.08333333333
                       -1   1.224646799e-16                 0       0.08333333333
             0.4472135955       0.894427191                 0       0.08333333333
            -0.4472135955      0.7236067977      0.5257311121       0.08333333333
             0.4472135955      0.2763932023      0.8506508084       0.08333333333
            -0.4472135955     -0.2763932023      0.8506508084       0.08333333333
             0.4472135955     -0.7236067977      0.5257311121       0.08333333333
            -0.4472135955      -0.894427191   1.095357397e-16       0.08333333333
             0.4472135955     -0.7236067977     -0.5257311121       0.08333333333
            -0.4472135955     -0.2763932023     -0.8506508084       0.08333333333
             0.4472135955      0.2763932023     -0.8506508084       0.08333333333
            -0.4472135955      0.7236067977     -0.5257311121       0.08333333333
    Maximum cutoff radius 0.928

  Adding pseudopotential for Ni
   Linear grid  ri=0 rf=10 npts = 10001
    ECPComponentBuilder::buildSemiLocalAndLocal 
WARNING Nrule was not determined from qmcpack input or pseudopotential file. Setting sensible default.
    Assuming Hartree unit
 l-local setting found in pseudopotential file and used.
   Number of angular momentum channels 3
   Maximum angular momentum channel (Lmax) 2
   Creating a Linear Grid Rmax=0.802458
  Using global grid with delta = 0.001
   Making L=1 a local potential with a radial cutoff of 9.999
  Quadrature Nrule: 4
    Non-local pseudopotential parameters
    Maximum angular momentum = 2
    Number of non-local channels = 2
       l(0)=0
       l(1)=2
    Cutoff radius = 0.803
    Number of spherical integration grid points = 12
    Spherical grid and weights: 
                        1                 0                 0       0.08333333333
                       -1   1.224646799e-16                 0       0.08333333333
             0.4472135955       0.894427191                 0       0.08333333333
            -0.4472135955      0.7236067977      0.5257311121       0.08333333333
             0.4472135955      0.2763932023      0.8506508084       0.08333333333
            -0.4472135955     -0.2763932023      0.8506508084       0.08333333333
             0.4472135955     -0.7236067977      0.5257311121       0.08333333333
            -0.4472135955      -0.894427191   1.095357397e-16       0.08333333333
             0.4472135955     -0.7236067977     -0.5257311121       0.08333333333
            -0.4472135955     -0.2763932023     -0.8506508084       0.08333333333
             0.4472135955      0.2763932023     -0.8506508084       0.08333333333
            -0.4472135955      0.7236067977     -0.5257311121       0.08333333333
    Maximum cutoff radius 0.803

  Creating CoulombHandler with the Esler Optimized Breakup. 
  KContainer initialised with cutoff 15.0670289
   # of K-shell  = 1194
   # of K points = 113346

  NUMBER OF OPT_BREAK KVECS = 41267457674
 finding kc:  2.691655154 , 2.691655154
  LRBreakp parameter Kc =2.691655154
    Continuum approximation in k = [15.0670289,1076.662062)

   LR Breakup chi^2 = 2.00846e-16
   Constant of PBCAB 962.12
  Rcut                5.5728
  Maximum K shell     39
  Number of k vectors 656
    CoulombPBCAB::add 
 Setting a linear grid=[0,5.5728) number of grid =5573
    Creating the short-range pseudopotential for species 0
    Creating the short-range pseudopotential for species 1
  QMCHamiltonian::addOperator LocalECP to H, physical Hamiltonian 

  Using NonLocalECP potential 
    Maximum grid on a sphere for NonLocalECPotential: 12
    Using batched ratio computing in NonLocalECP
  QMCHamiltonian::addOperator NonLocalECP to H, physical Hamiltonian 

   Coulomb Potential
   -----------------
    Name: IonIon   Type: AA   PBC: yes

  Clone CoulombHandler. 
   PBCAA self-interaction term -1570.7
   PBCAA total constant -2051.7
Checking ion-ion Ewald energy against reference...
  Check passed.
  Maximum K shell 39
  Number of k vectors 656
  Fixed Coulomb potential for i
    e-e Madelung Const. =-0.10848165
    Vtot     =-1914.3872
  QMCHamiltonian::addOperator IonIon to H, physical Hamiltonian 
QMCHamiltonian::addOperatorType added type coulomb named IonIon

   Coulomb Potential
   -----------------
    Name: ElecElec   Type: AA   PBC: yes

  Clone CoulombHandler. 
   PBCAA self-interaction term -104.71024
[...]

QMCPACK execution completed successfully
FLUX-RUN END qmcpack-iter-5
0% [Working]            Get:1 http://security.ubuntu.com/ubuntu jammy-security InRelease [129 kB]
0% [Waiting for headers] [1 InRelease 6932 B/129 kB 5%]                                                       Get:2 http://archive.ubuntu.com/ubuntu jammy InRelease [270 kB]
0% [2 InRelease 11.3 kB/270 kB 4%] [1 InRelease 14.2 kB/129 kB 11%]                                                                   0% [2 InRelease 107 kB/270 kB 40%]0% [2 InRelease 270 kB/270 kB 100%]                                   0% [Waiting for headers]                        Get:3 http://archive.ubuntu.com/ubuntu jammy-updates InRelease [128 kB]
0% [3 InRelease 9828 B/128 kB 8%] [Waiting for headers]                                                       Get:4 http://security.ubuntu.com/ubuntu jammy-security/restricted amd64 Packages [4118 kB]
0% [3 InRelease 30.1 kB/128 kB 24%] [4 Packages 2655 B/4118 kB 0%]                                                                  0% [4 Packages 36.0 kB/4118 kB 1%]0% [Waiting for headers] [4 Packages 116 kB/4118 kB 3%]                                                       Get:5 http://archive.ubuntu.com/ubuntu jammy-backports InRelease [127 kB]
0% [5 InRelease 9828 B/127 kB 8%] [4 Packages 152 kB/4118 kB 4%]                                                                0% [4 Packages 195 kB/4118 kB 5%]                                 Get:6 http://archive.ubuntu.com/ubuntu jammy/restricted amd64 Packages [164 kB]
0% [6 Packages 9897 B/164 kB 6%] [4 Packages 457 kB/4118 kB 11%]0% [6 Packages 40.3 kB/164 kB 25%] [4 Packages 488 kB/4118 kB 12%]                                                                  0% [Waiting for headers] [4 Packages 695 kB/4118 kB 17%]                                                        Get:7 http://archive.ubuntu.com/ubuntu jammy/multiverse amd64 Packages [266 kB]
0% [7 Packages 68.4 kB/266 kB 26%] [4 Packages 695 kB/4118 kB 17%]0% [6 Packages store 0 B] [7 Packages 77.1 kB/266 kB 29%] [4 Packages 695 kB/41                                                                               0% [7 Packages 173 kB/266 kB 65%] [4 Packages 873 kB/4118 kB 21%]                                                                 0% [Waiting for headers] [4 Packages 1080 kB/4118 kB 26%]                                                         Get:8 http://archive.ubuntu.com/ubuntu jammy/main amd64 Packages [1792 kB]
0% [8 Packages 2303 B/1792 kB 0%] [4 Packages 1080 kB/4118 kB 26%]0% [7 Packages store 0 B] [8 Packages 2303 B/1792 kB 0%] [4 Packages 1080 kB/41                                                                               0% [8 Packages 132 kB/1792 kB 7%] [4 Packages 1385 kB/4118 kB 34%]20% [8 Packages 273 kB/1792 kB 15%] [4 Packages 1746 kB/4118 kB 42%]                                                                    27% [8 Packages 1400 kB/1792 kB 78%]27% [4 Packages store 0 B] [8 Packages 1400 kB/1792 kB 78%]28% [4 Packages store 0 B] [Waiting for headers] [Waiting for headers]                                                                      Get:9 http://archive.ubuntu.com/ubuntu jammy/universe amd64 Packages [17.5 MB]
28% [4 Packages store 0 B] [9 Packages 20.2 kB/17.5 MB 0%] [Waiting for headers                                                                               Get:10 http://security.ubuntu.com/ubuntu jammy-security/multiverse amd64 Packages [47.7 kB]
32% [4 Packages store 0 B] [9 Packages 1642 kB/17.5 MB 9%] [10 Packages 9899 B/32% [4 Packages store 0 B] [9 Packages 1648 kB/17.5 MB 9%] [Waiting for headers                                                                               Get:11 http://security.ubuntu.com/ubuntu jammy-security/main amd64 Packages [2844 kB]
32% [4 Packages store 0 B] [9 Packages 1648 kB/17.5 MB 9%] [11 Packages 8192 B/41% [4 Packages store 0 B] [9 Packages 3155 kB/17.5 MB 18%] [Waiting for header                                                                               Get:12 http://security.ubuntu.com/ubuntu jammy-security/universe amd64 Packages [1244 kB]
41% [4 Packages store 0 B] [9 Packages 3155 kB/17.5 MB 18%] [12 Packages 69.3 k                                                                               45% [4 Packages store 0 B] [9 Packages 3895 kB/17.5 MB 22%]                                                           74% [4 Packages store 0 B] [Waiting for headers]                                                Get:13 http://archive.ubuntu.com/ubuntu jammy-updates/main amd64 Packages [3200 kB]
74% [4 Packages store 0 B] [13 Packages 10.6 kB/3200 kB 0%]                                                           80% [4 Packages store 0 B] [Waiting for headers]                                                Get:14 http://archive.ubuntu.com/ubuntu jammy-updates/universe amd64 Packages [1544 kB]
80% [4 Packages store 0 B] [14 Packages 21.5 kB/1544 kB 1%]                                                           84% [4 Packages store 0 B] [Waiting for headers]                                                Get:15 http://archive.ubuntu.com/ubuntu jammy-updates/restricted amd64 Packages [4420 kB]
84% [4 Packages store 0 B] [15 Packages 50.1 kB/4420 kB 1%]                                                           93% [4 Packages store 0 B] [Waiting for headers]                                                Get:16 http://archive.ubuntu.com/ubuntu jammy-updates/multiverse amd64 Packages [55.7 kB]
93% [4 Packages store 0 B] [16 Packages 21.2 kB/55.7 kB 38%]                                                            93% [4 Packages store 0 B] [Waiting for headers]                                                Get:17 http://archive.ubuntu.com/ubuntu jammy-backports/universe amd64 Packages [35.2 kB]
93% [4 Packages store 0 B] [17 Packages 30.8 kB/35.2 kB 87%]                                                            93% [4 Packages store 0 B] [Waiting for headers]                                                Get:18 http://archive.ubuntu.com/ubuntu jammy-backports/main amd64 Packages [82.7 kB]
93% [4 Packages store 0 B] [18 Packages 14.4 kB/82.7 kB 17%]                                                            93% [4 Packages store 0 B]                          94% [Working]94% [8 Packages store 0 B]                          94% [Working]94% [10 Packages store 0 B]                           95% [Working]95% [11 Packages store 0 B]                           96% [Working]96% [12 Packages store 0 B]                           96% [Working]96% [9 Packages store 0 B]96% [9 Packages store 0 B]                          97% [Working]97% [13 Packages store 0 B]                           97% [Working]97% [14 Packages store 0 B]                           98% [Working]98% [15 Packages store 0 B]                           98% [Working]98% [16 Packages store 0 B]                           99% [Working]99% [17 Packages store 0 B]                           99% [Working]99% [18 Packages store 0 B]                           100% [Working]              Fetched 37.9 MB in 2s (18.0 MB/s)
Reading package lists... 0%Reading package lists... 0%Reading package lists... 0%Reading package lists... 4%Reading package lists... 4%Reading package lists... 4%Reading package lists... 4%Reading package lists... 46%Reading package lists... 46%Reading package lists... 47%Reading package lists... 47%Reading package lists... 56%Reading package lists... 56%Reading package lists... 70%Reading package lists... 70%Reading package lists... 74%Reading package lists... 74%Reading package lists... 74%Reading package lists... 74%Reading package lists... 75%Reading package lists... 75%Reading package lists... 75%Reading package lists... 75%Reading package lists... 75%Reading package lists... 83%Reading package lists... 83%Reading package lists... 95%Reading package lists... 95%Reading package lists... 99%Reading package lists... 99%Reading package lists... 99%Reading package lists... 99%Reading package lists... Done
Reading package lists... 0%Reading package lists... 0%Reading package lists... 0%Reading package lists... 4%Reading package lists... 4%Reading package lists... 4%Reading package lists... 4%Reading package lists... 46%Reading package lists... 46%Reading package lists... 47%Reading package lists... 47%Reading package lists... 56%Reading package lists... 56%Reading package lists... 70%Reading package lists... 70%Reading package lists... 74%Reading package lists... 74%Reading package lists... 74%Reading package lists... 74%Reading package lists... 75%Reading package lists... 75%Reading package lists... 75%Reading package lists... 75%Reading package lists... 75%Reading package lists... 83%Reading package lists... 83%Reading package lists... 95%Reading package lists... 95%Reading package lists... 99%Reading package lists... 99%Reading package lists... 99%Reading package lists... 99%Reading package lists... Done
Building dependency tree... 0%Building dependency tree... 0%Building dependency tree... 50%Building dependency tree... 50%Building dependency tree... Done
Reading state information... 0% Reading state information... 1%Reading state information... Done
The following additional packages will be installed:
  libjq1 libonig5
The following NEW packages will be installed:
  jq libjq1 libonig5
0 upgraded, 3 newly installed, 0 to remove and 1 not upgraded.
Need to get 357 kB of archives.
After this operation, 1087 kB of additional disk space will be used.
0% [Working]            Get:1 http://archive.ubuntu.com/ubuntu jammy/main amd64 libonig5 amd64 6.9.7.1-2build1 [172 kB]
1% [1 libonig5 2604 B/172 kB 2%]                                45% [Working]             Get:2 http://archive.ubuntu.com/ubuntu jammy/main amd64 libjq1 amd64 1.6-2.1ubuntu3 [133 kB]
46% [2 libjq1 4052 B/133 kB 3%]                               82% [Waiting for headers]                         Get:3 http://archive.ubuntu.com/ubuntu jammy/main amd64 jq amd64 1.6-2.1ubuntu3 [52.5 kB]
83% [3 jq 4320 B/52.5 kB 8%]                            100% [Working]              Fetched 357 kB in 0s (888 kB/s)
debconf: delaying package configuration, since apt-utils is not installed
Selecting previously unselected package libonig5:amd64.
(Reading database ... (Reading database ... 5%(Reading database ... 10%(Reading database ... 15%(Reading database ... 20%(Reading database ... 25%(Reading database ... 30%(Reading database ... 35%(Reading database ... 40%(Reading database ... 45%(Reading database ... 50%(Reading database ... 55%(Reading database ... 60%(Reading database ... 65%(Reading database ... 70%(Reading database ... 75%(Reading database ... 80%(Reading database ... 85%(Reading database ... 90%(Reading database ... 95%(Reading database ... 100%(Reading database ... 8293 files and directories currently installed.)
Preparing to unpack .../libonig5_6.9.7.1-2build1_amd64.deb ...
Unpacking libonig5:amd64 (6.9.7.1-2build1) ...
Selecting previously unselected package libjq1:amd64.
Preparing to unpack .../libjq1_1.6-2.1ubuntu3_amd64.deb ...
Unpacking libjq1:amd64 (1.6-2.1ubuntu3) ...
Selecting previously unselected package jq.
Preparing to unpack .../jq_1.6-2.1ubuntu3_amd64.deb ...
Unpacking jq (1.6-2.1ubuntu3) ...
Setting up libonig5:amd64 (6.9.7.1-2build1) ...
Setting up libjq1:amd64 (1.6-2.1ubuntu3) ...
Setting up jq (1.6-2.1ubuntu3) ...
Processing triggers for libc-bin (2.35-0ubuntu3.9) ...

FLUX-JOB START 1783535501312 qmcpack-iter-5
FLUX-JOB-JOBSPEC START
{"resources": [{"type": "node", "count": 8, "with": [{"type": "slot", "count": 88, "with": [{"type": "core", "count": 1}], "label": "task"}]}], "tasks": [{"command": ["qmcpack", "NiO-fcc-S8-dmc-strongscale.xml"], "slot": "task", "count": {"per_slot": 1}}], "attributes": {"system": {"duration": 0, "cwd": "/coral2/NiO/dmc-a32-e384-batched_driver-DU32", "shell": {"options": {"rlimit": {"cpu": -1, "fsize": -1, "data": -1, "stack": 8388608, "core": -1, "nofile": 1048576, "as": -1, "rss": -1, "nproc": -1}, "cpu-affinity": "per-task", "gpu-affinity": "off"}}}, "user": {"study_id": "qmcpack-iter-5"}}, "version": 1}
FLUX-JOB-JOBSPEC END
FLUX-JOB-RESOURCES START
{"version": 1, "execution": {"R_lite": [{"rank": "0-7", "children": {"core": "0-87"}}], "nodelist": ["qmcpack-[0-7]"], "starttime": 1746401386, "expiration": 4900001280}}
FLUX-JOB-RESOURCES END
FLUX-JOB-EVENTLOG START
{"timestamp":1746401386.5362816,"name":"init"}
{"timestamp":1746401386.5369358,"name":"starting"}
{"timestamp":1746401386.5500605,"name":"shell.init","context":{"service":"0-shell-forKve6b","leader-rank":0,"size":8}}
{"timestamp":1746401386.7304547,"name":"shell.start","context":{"taskmap":{"version":1,"map":[[0,8,88,1]]}}}
{"timestamp":1746401412.4518504,"name":"shell.task-exit","context":{"localid":87,"rank":87,"state":"Exited","pid":971,"wait_status":0,"signaled":0,"exitcode":0}}
{"timestamp":1746401412.5285707,"name":"complete","context":{"status":0}}
{"timestamp":1746401412.528599,"name":"done"}

FLUX-JOB-EVENTLOG END
FLUX-JOB END 1783535501312 qmcpack-iter-5

FLUX-JOB START 1336422694912 qmcpack-iter-4
FLUX-JOB-JOBSPEC START
{"resources": [{"type": "node", "count": 8, "with": [{"type": "slot", "count": 88, "with": [{"type": "core", "count": 1}], "label": "task"}]}], "tasks": [{"command": ["qmcpack", "NiO-fcc-S8-dmc-strongscale.xml"], "slot": "task", "count": {"per_slot": 1}}], "attributes": {"system": {"duration": 0, "cwd": "/coral2/NiO/dmc-a32-e384-batched_driver-DU32", "shell": {"options": {"rlimit": {"cpu": -1, "fsize": -1, "data": -1, "stack": 8388608, "core": -1, "nofile": 1048576, "as": -1, "rss": -1, "nproc": -1}, "cpu-affinity": "per-task", "gpu-affinity": "off"}}}, "user": {"study_id": "qmcpack-iter-4"}}, "version": 1}
FLUX-JOB-JOBSPEC END
FLUX-JOB-RESOURCES START
{"version": 1, "execution": {"R_lite": [{"rank": "0-7", "children": {"core": "0-87"}}], "nodelist": ["qmcpack-[0-7]"], "starttime": 1746401359, "expiration": 4900001280}}
FLUX-JOB-RESOURCES END
FLUX-JOB-EVENTLOG START
{"timestamp":1746401359.886534,"name":"init"}
{"timestamp":1746401359.887217,"name":"starting"}
{"timestamp":1746401359.9007037,"name":"shell.init","context":{"service":"0-shell-fc786dvw","leader-rank":0,"size":8}}
{"timestamp":1746401360.079555,"name":"shell.start","context":{"taskmap":{"version":1,"map":[[0,8,88,1]]}}}
{"timestamp":1746401386.2065437,"name":"shell.task-exit","context":{"localid":70,"rank":70,"state":"Exited","pid":773,"wait_status":0,"signaled":0,"exitcode":0}}
{"timestamp":1746401386.2746572,"name":"complete","context":{"status":0}}
{"timestamp":1746401386.2746875,"name":"done"}

FLUX-JOB-EVENTLOG END
FLUX-JOB END 1336422694912 qmcpack-iter-4

FLUX-JOB START 896238878720 qmcpack-iter-3
FLUX-JOB-JOBSPEC START
{"resources": [{"type": "node", "count": 8, "with": [{"type": "slot", "count": 88, "with": [{"type": "core", "count": 1}], "label": "task"}]}], "tasks": [{"command": ["qmcpack", "NiO-fcc-S8-dmc-strongscale.xml"], "slot": "task", "count": {"per_slot": 1}}], "attributes": {"system": {"duration": 0, "cwd": "/coral2/NiO/dmc-a32-e384-batched_driver-DU32", "shell": {"options": {"rlimit": {"cpu": -1, "fsize": -1, "data": -1, "stack": 8388608, "core": -1, "nofile": 1048576, "as": -1, "rss": -1, "nproc": -1}, "cpu-affinity": "per-task", "gpu-affinity": "off"}}}, "user": {"study_id": "qmcpack-iter-3"}}, "version": 1}
FLUX-JOB-JOBSPEC END
FLUX-JOB-RESOURCES START
{"version": 1, "execution": {"R_lite": [{"rank": "0-7", "children": {"core": "0-87"}}], "nodelist": ["qmcpack-[0-7]"], "starttime": 1746401333, "expiration": 4900001280}}
FLUX-JOB-RESOURCES END
FLUX-JOB-EVENTLOG START
{"timestamp":1746401333.6485183,"name":"init"}
{"timestamp":1746401333.6490901,"name":"starting"}
{"timestamp":1746401333.6620026,"name":"shell.init","context":{"service":"0-shell-fQYUZX9h","leader-rank":0,"size":8}}
{"timestamp":1746401333.8401442,"name":"shell.start","context":{"taskmap":{"version":1,"map":[[0,8,88,1]]}}}
{"timestamp":1746401359.5511217,"name":"shell.task-exit","context":{"localid":87,"rank":439,"state":"Exited","pid":563,"wait_status":0,"signaled":0,"exitcode":0}}
{"timestamp":1746401359.6221094,"name":"complete","context":{"status":0}}
{"timestamp":1746401359.6221464,"name":"done"}

FLUX-JOB-EVENTLOG END
FLUX-JOB END 896238878720 qmcpack-iter-3

FLUX-JOB START 450300477440 qmcpack-iter-2
FLUX-JOB-JOBSPEC START
{"resources": [{"type": "node", "count": 8, "with": [{"type": "slot", "count": 88, "with": [{"type": "core", "count": 1}], "label": "task"}]}], "tasks": [{"command": ["qmcpack", "NiO-fcc-S8-dmc-strongscale.xml"], "slot": "task", "count": {"per_slot": 1}}], "attributes": {"system": {"duration": 0, "cwd": "/coral2/NiO/dmc-a32-e384-batched_driver-DU32", "shell": {"options": {"rlimit": {"cpu": -1, "fsize": -1, "data": -1, "stack": 8388608, "core": -1, "nofile": 1048576, "as": -1, "rss": -1, "nproc": -1}, "cpu-affinity": "per-task", "gpu-affinity": "off"}}}, "user": {"study_id": "qmcpack-iter-2"}}, "version": 1}
FLUX-JOB-JOBSPEC END
FLUX-JOB-RESOURCES START
{"version": 1, "execution": {"R_lite": [{"rank": "0-7", "children": {"core": "0-87"}}], "nodelist": ["qmcpack-[0-7]"], "starttime": 1746401307, "expiration": 4900001280}}
FLUX-JOB-RESOURCES END
FLUX-JOB-EVENTLOG START
{"timestamp":1746401307.0691059,"name":"init"}
{"timestamp":1746401307.0696433,"name":"starting"}
{"timestamp":1746401307.0929992,"name":"shell.init","context":{"service":"0-shell-fCq4WeiB","leader-rank":0,"size":8}}
{"timestamp":1746401307.2720184,"name":"shell.start","context":{"taskmap":{"version":1,"map":[[0,8,88,1]]}}}
{"timestamp":1746401333.3468451,"name":"shell.task-exit","context":{"localid":4,"rank":4,"state":"Exited","pid":345,"wait_status":0,"signaled":0,"exitcode":0}}
{"timestamp":1746401333.3901749,"name":"complete","context":{"status":0}}
{"timestamp":1746401333.3902111,"name":"done"}

FLUX-JOB-EVENTLOG END
FLUX-JOB END 450300477440 qmcpack-iter-2

FLUX-JOB START 12515803136 qmcpack-iter-1
FLUX-JOB-JOBSPEC START
{"resources": [{"type": "node", "count": 8, "with": [{"type": "slot", "count": 88, "with": [{"type": "core", "count": 1}], "label": "task"}]}], "tasks": [{"command": ["qmcpack", "NiO-fcc-S8-dmc-strongscale.xml"], "slot": "task", "count": {"per_slot": 1}}], "attributes": {"system": {"duration": 0, "cwd": "/coral2/NiO/dmc-a32-e384-batched_driver-DU32", "shell": {"options": {"rlimit": {"cpu": -1, "fsize": -1, "data": -1, "stack": 8388608, "core": -1, "nofile": 1048576, "as": -1, "rss": -1, "nproc": -1}, "cpu-affinity": "per-task", "gpu-affinity": "off"}}}, "user": {"study_id": "qmcpack-iter-1"}}, "version": 1}
FLUX-JOB-JOBSPEC END
FLUX-JOB-RESOURCES START
{"version": 1, "execution": {"R_lite": [{"rank": "0-7", "children": {"core": "0-87"}}], "nodelist": ["qmcpack-[0-7]"], "starttime": 1746401280, "expiration": 4900001280}}
FLUX-JOB-RESOURCES END
FLUX-JOB-EVENTLOG START
{"timestamp":1746401280.9753952,"name":"init"}
{"timestamp":1746401280.9759018,"name":"starting"}
{"timestamp":1746401280.9887943,"name":"shell.init","context":{"service":"0-shell-fL4ymEF","leader-rank":0,"size":8}}
{"timestamp":1746401281.1675143,"name":"shell.start","context":{"taskmap":{"version":1,"map":[[0,8,88,1]]}}}
{"timestamp":1746401306.7341936,"name":"shell.task-exit","context":{"localid":82,"rank":82,"state":"Exited","pid":242,"wait_status":0,"signaled":0,"exitcode":0}}
{"timestamp":1746401306.8095236,"name":"complete","context":{"status":0}}
{"timestamp":1746401306.8095558,"name":"done"}

FLUX-JOB-EVENTLOG END
FLUX-JOB END 12515803136 qmcpack-iter-1
FLUX JOB STATS
{"job_states":{"depend":0,"priority":0,"sched":0,"run":0,"cleanup":0,"inactive":5,"total":5},"successful":5,"failed":0,"canceled":0,"timeout":0,"inactive_purged":0,"queues":[]}
