Defaulted container "lammps" out of: lammps, flux-view (init)
#!/bin/bash
set -euo pipefail
mkdir -p /tmp/output
flux resource list
for i in {1..5}
do
  flux run --setattr=user.study_id=lammps-iter-$i -N4 -n 352 -o cpu-affinity=per-task -o gpu-affinity=off    /usr/bin/lmp -v x 32 -v y 16 -v z 16 -in in.reaxff.hns -nocite |& tee /tmp/lammps.out
done
     STATE NNODES   NCORES    NGPUS NODELIST
      free      4      352        0 lammps-[0-3]
 allocated      0        0        0 
      down      0        0        0 
LAMMPS (17 Apr 2024 - Development - a8687b5)
OMP_NUM_THREADS environment is not set. Defaulting to 1 thread. (src/comm.cpp:98)
  using 1 OpenMP thread(s) per MPI task
Reading data file ...
  triclinic box = (0 0 0) to (22.326 11.1412 13.778966) with tilt (0 -5.02603 0)
  11 by 4 by 8 MPI processor grid
  reading atoms ...
  304 atoms
  reading velocities ...
  304 velocities
  read_data CPU = 0.074 seconds
Replication is creating a 32x16x16 = 8192 times larger system...
  triclinic box = (0 0 0) to (714.432 178.2592 220.46346) with tilt (0 -80.41648 0)
  22 by 4 by 4 MPI processor grid
  bounding box image = (0 -1 -1) to (0 1 1)
  bounding box extra memory = 0.03 MB
  average # of replicas added to proc = 93.32 out of 8192 (1.14%)
  2490368 atoms
  replicate CPU = 0.068 seconds
Neighbor list info ...
  update: every = 20 steps, delay = 0 steps, check = no
  max neighbors/atom: 2000, page size: 100000
  master list distance cutoff = 11
  ghost atom cutoff = 11
  binsize = 5.5, bins = 145 33 41
  2 neighbor lists, perpetual/occasional/extra = 2 0 0
  (1) pair reaxff, perpetual
      attributes: half, newton off, ghost
      pair build: half/bin/ghost/newtoff
      stencil: full/ghost/bin/3d
      bin: standard
  (2) fix qeq/reax, perpetual, copy from (1)
      attributes: half, newton off
      pair build: copy
      stencil: none
      bin: none
Setting up Verlet run ...
  Unit style    : real
  Current step  : 0
  Time step     : 0.1
Per MPI rank memory allocation (min/avg/max) = 422.8 | 425 | 427.8 Mbytes
   Step          Temp          PotEng         Press          E_vdwl         E_coul         Volume    
         0   300           -113.27833      439.019       -111.57687     -1.7014647      28076920     
        10   300.80942     -113.28057      771.84454     -111.57914     -1.7014344      28076920     
        20   302.48468     -113.28543      1617.8995     -111.5841      -1.7013225      28076920     
        30   302.59604     -113.28563      4192.6706     -111.58454     -1.7010941      28076920     
        40   300.62527     -113.27968      6255.5444     -111.57892     -1.7007682      28076920     
        50   297.47083     -113.27023      6362.8029     -111.56983     -1.700403       28076920     
        60   294.82187     -113.26229      6159.6187     -111.56225     -1.7000342      28076920     
        70   294.73873     -113.262        6821.3995     -111.56234     -1.6996611      28076920     
        80   297.7812      -113.27105      8243.841      -111.57176     -1.699289       28076920     
        90   301.63837     -113.28255      9412.3145     -111.58359     -1.6989588      28076920     
       100   302.57931     -113.2853       10403.961     -111.58658     -1.698722       28076920     
Loop time of 65.3049 on 352 procs for 100 steps with 2490368 atoms

Performance: 0.013 ns/day, 1814.025 hours/ns, 1.531 timesteps/s, 3.813 Matom-step/s
86.9% CPU use with 352 MPI tasks x 1 OpenMP threads

MPI task timing breakdown:
Section |  min time  |  avg time  |  max time  |%varavg| %total
---------------------------------------------------------------
Pair    | 36.897     | 39.824     | 42.319     |  17.7 | 60.98
Neigh   | 0.54745    | 0.55561    | 0.58542    |   0.7 |  0.85
Comm    | 0.8401     | 3.4164     | 6.5974     |  62.9 |  5.23
Output  | 0.033272   | 0.052636   | 0.080656   |   4.9 |  0.08
Modify  | 21.091     | 21.451     | 21.82      |   4.3 | 32.85
Other   |            | 0.004886   |            |       |  0.01

Nlocal:        7074.91 ave        7184 max        6983 min
Histogram: 16 31 62 32 103 42 2 0 33 31
Nghost:        18261.8 ave       18465 max       18032 min
Histogram: 32 10 23 31 32 96 64 0 24 40
Neighs:    2.21523e+06 ave 2.24454e+06 max 2.19114e+06 min
Histogram: 9 29 66 98 42 16 28 0 33 31

Total # of neighbors = 7.7976144e+08
Ave neighs/atom = 313.11093
Neighbor list builds = 5
Dangerous builds not checked
Total wall time: 0:01:07
LAMMPS (17 Apr 2024 - Development - a8687b5)
OMP_NUM_THREADS environment is not set. Defaulting to 1 thread. (src/comm.cpp:98)
  using 1 OpenMP thread(s) per MPI task
Reading data file ...
  triclinic box = (0 0 0) to (22.326 11.1412 13.778966) with tilt (0 -5.02603 0)
  11 by 4 by 8 MPI processor grid
  reading atoms ...
  304 atoms
  reading velocities ...
  304 velocities
  read_data CPU = 0.073 seconds
Replication is creating a 32x16x16 = 8192 times larger system...
  triclinic box = (0 0 0) to (714.432 178.2592 220.46346) with tilt (0 -80.41648 0)
  22 by 4 by 4 MPI processor grid
  bounding box image = (0 -1 -1) to (0 1 1)
  bounding box extra memory = 0.03 MB
  average # of replicas added to proc = 93.32 out of 8192 (1.14%)
  2490368 atoms
  replicate CPU = 0.069 seconds
Neighbor list info ...
  update: every = 20 steps, delay = 0 steps, check = no
  max neighbors/atom: 2000, page size: 100000
  master list distance cutoff = 11
  ghost atom cutoff = 11
  binsize = 5.5, bins = 145 33 41
  2 neighbor lists, perpetual/occasional/extra = 2 0 0
  (1) pair reaxff, perpetual
      attributes: half, newton off, ghost
      pair build: half/bin/ghost/newtoff
      stencil: full/ghost/bin/3d
      bin: standard
  (2) fix qeq/reax, perpetual, copy from (1)
      attributes: half, newton off
      pair build: copy
      stencil: none
      bin: none
Setting up Verlet run ...
  Unit style    : real
  Current step  : 0
  Time step     : 0.1
Per MPI rank memory allocation (min/avg/max) = 422.8 | 425 | 427.8 Mbytes
   Step          Temp          PotEng         Press          E_vdwl         E_coul         Volume    
         0   300           -113.27833      439.019       -111.57687     -1.7014647      28076920     
        10   300.80942     -113.28057      771.84454     -111.57914     -1.7014344      28076920     
        20   302.48468     -113.28543      1617.8995     -111.5841      -1.7013225      28076920     
        30   302.59604     -113.28563      4192.6706     -111.58454     -1.7010941      28076920     
        40   300.62527     -113.27968      6255.5444     -111.57892     -1.7007682      28076920     
        50   297.47083     -113.27023      6362.8029     -111.56983     -1.700403       28076920     
        60   294.82187     -113.26229      6159.6187     -111.56225     -1.7000342      28076920     
        70   294.73873     -113.262        6821.3995     -111.56234     -1.6996611      28076920     
        80   297.7812      -113.27105      8243.841      -111.57176     -1.699289       28076920     
        90   301.63837     -113.28255      9412.3145     -111.58359     -1.6989588      28076920     
       100   302.57931     -113.2853       10403.961     -111.58658     -1.698722       28076920     
Loop time of 62.33 on 352 procs for 100 steps with 2490368 atoms

Performance: 0.014 ns/day, 1731.388 hours/ns, 1.604 timesteps/s, 3.995 Matom-step/s
89.8% CPU use with 352 MPI tasks x 1 OpenMP threads

MPI task timing breakdown:
Section |  min time  |  avg time  |  max time  |%varavg| %total
---------------------------------------------------------------
Pair    | 36.882     | 39.821     | 42.261     |  17.7 | 63.89
Neigh   | 0.54677    | 0.55533    | 0.56945    |   0.6 |  0.89
Comm    | 0.26805    | 2.7424     | 5.856      |  68.9 |  4.40
Output  | 0.03832    | 0.080517   | 0.11689    |   7.0 |  0.13
Modify  | 18.965     | 19.126     | 19.303     |   2.0 | 30.68
Other   |            | 0.004843   |            |       |  0.01

Nlocal:        7074.91 ave        7184 max        6983 min
Histogram: 16 31 62 32 103 42 2 0 33 31
Nghost:        18261.8 ave       18465 max       18032 min
Histogram: 32 10 23 31 32 96 64 0 24 40
Neighs:    2.21523e+06 ave 2.24454e+06 max 2.19114e+06 min
Histogram: 9 29 66 98 42 16 28 0 33 31

Total # of neighbors = 7.7976144e+08
Ave neighs/atom = 313.11093
Neighbor list builds = 5
Dangerous builds not checked
Total wall time: 0:01:03
LAMMPS (17 Apr 2024 - Development - a8687b5)
OMP_NUM_THREADS environment is not set. Defaulting to 1 thread. (src/comm.cpp:98)
  using 1 OpenMP thread(s) per MPI task
Reading data file ...
  triclinic box = (0 0 0) to (22.326 11.1412 13.778966) with tilt (0 -5.02603 0)
  11 by 4 by 8 MPI processor grid
  reading atoms ...
  304 atoms
  reading velocities ...
  304 velocities
  read_data CPU = 0.071 seconds
Replication is creating a 32x16x16 = 8192 times larger system...
  triclinic box = (0 0 0) to (714.432 178.2592 220.46346) with tilt (0 -80.41648 0)
  22 by 4 by 4 MPI processor grid
  bounding box image = (0 -1 -1) to (0 1 1)
  bounding box extra memory = 0.03 MB
  average # of replicas added to proc = 93.32 out of 8192 (1.14%)
  2490368 atoms
  replicate CPU = 0.062 seconds
Neighbor list info ...
  update: every = 20 steps, delay = 0 steps, check = no
  max neighbors/atom: 2000, page size: 100000
  master list distance cutoff = 11
  ghost atom cutoff = 11
  binsize = 5.5, bins = 145 33 41
  2 neighbor lists, perpetual/occasional/extra = 2 0 0
  (1) pair reaxff, perpetual
      attributes: half, newton off, ghost
      pair build: half/bin/ghost/newtoff
      stencil: full/ghost/bin/3d
      bin: standard
  (2) fix qeq/reax, perpetual, copy from (1)
      attributes: half, newton off
      pair build: copy
      stencil: none
      bin: none
Setting up Verlet run ...
  Unit style    : real
  Current step  : 0
  Time step     : 0.1
Per MPI rank memory allocation (min/avg/max) = 422.8 | 425 | 427.8 Mbytes
   Step          Temp          PotEng         Press          E_vdwl         E_coul         Volume    
         0   300           -113.27833      439.019       -111.57687     -1.7014647      28076920     
        10   300.80942     -113.28057      771.84454     -111.57914     -1.7014344      28076920     
        20   302.48468     -113.28543      1617.8995     -111.5841      -1.7013225      28076920     
        30   302.59604     -113.28563      4192.6706     -111.58454     -1.7010941      28076920     
        40   300.62527     -113.27968      6255.5444     -111.57892     -1.7007682      28076920     
        50   297.47083     -113.27023      6362.8029     -111.56983     -1.700403       28076920     
        60   294.82187     -113.26229      6159.6187     -111.56225     -1.7000342      28076920     
        70   294.73873     -113.262        6821.3995     -111.56234     -1.6996611      28076920     
        80   297.7812      -113.27105      8243.841      -111.57176     -1.699289       28076920     
        90   301.63837     -113.28255      9412.3145     -111.58359     -1.6989588      28076920     
       100   302.57931     -113.2853       10403.961     -111.58658     -1.698722       28076920     
Loop time of 63.0883 on 352 procs for 100 steps with 2490368 atoms

Performance: 0.014 ns/day, 1752.452 hours/ns, 1.585 timesteps/s, 3.947 Matom-step/s
89.0% CPU use with 352 MPI tasks x 1 OpenMP threads

MPI task timing breakdown:
Section |  min time  |  avg time  |  max time  |%varavg| %total
---------------------------------------------------------------
Pair    | 36.902     | 39.818     | 42.24      |  17.7 | 63.12
Neigh   | 0.54692    | 0.55545    | 0.57172    |   0.6 |  0.88
Comm    | 0.27732    | 2.8088     | 6.0161     |  68.2 |  4.45
Output  | 0.02198    | 0.088665   | 0.13035    |  12.1 |  0.14
Modify  | 19.498     | 19.812     | 20.039     |   2.9 | 31.40
Other   |            | 0.004945   |            |       |  0.01

Nlocal:        7074.91 ave        7184 max        6983 min
Histogram: 16 31 62 32 103 42 2 0 33 31
Nghost:        18261.8 ave       18465 max       18032 min
Histogram: 32 10 23 31 32 96 64 0 24 40
Neighs:    2.21523e+06 ave 2.24454e+06 max 2.19114e+06 min
Histogram: 9 29 66 98 42 16 28 0 33 31

Total # of neighbors = 7.7976144e+08
Ave neighs/atom = 313.11093
Neighbor list builds = 5
Dangerous builds not checked
Total wall time: 0:01:04
LAMMPS (17 Apr 2024 - Development - a8687b5)
OMP_NUM_THREADS environment is not set. Defaulting to 1 thread. (src/comm.cpp:98)
  using 1 OpenMP thread(s) per MPI task
Reading data file ...
  triclinic box = (0 0 0) to (22.326 11.1412 13.778966) with tilt (0 -5.02603 0)
  11 by 4 by 8 MPI processor grid
  reading atoms ...
  304 atoms
  reading velocities ...
  304 velocities
  read_data CPU = 0.070 seconds
Replication is creating a 32x16x16 = 8192 times larger system...
  triclinic box = (0 0 0) to (714.432 178.2592 220.46346) with tilt (0 -80.41648 0)
  22 by 4 by 4 MPI processor grid
  bounding box image = (0 -1 -1) to (0 1 1)
  bounding box extra memory = 0.03 MB
  average # of replicas added to proc = 93.32 out of 8192 (1.14%)
  2490368 atoms
  replicate CPU = 0.062 seconds
Neighbor list info ...
  update: every = 20 steps, delay = 0 steps, check = no
  max neighbors/atom: 2000, page size: 100000
  master list distance cutoff = 11
  ghost atom cutoff = 11
  binsize = 5.5, bins = 145 33 41
  2 neighbor lists, perpetual/occasional/extra = 2 0 0
  (1) pair reaxff, perpetual
      attributes: half, newton off, ghost
      pair build: half/bin/ghost/newtoff
      stencil: full/ghost/bin/3d
      bin: standard
  (2) fix qeq/reax, perpetual, copy from (1)
      attributes: half, newton off
      pair build: copy
      stencil: none
      bin: none
Setting up Verlet run ...
  Unit style    : real
  Current step  : 0
  Time step     : 0.1
Per MPI rank memory allocation (min/avg/max) = 422.8 | 425 | 427.8 Mbytes
   Step          Temp          PotEng         Press          E_vdwl         E_coul         Volume    
         0   300           -113.27833      439.019       -111.57687     -1.7014647      28076920     
        10   300.80942     -113.28057      771.84454     -111.57914     -1.7014344      28076920     
        20   302.48468     -113.28543      1617.8995     -111.5841      -1.7013225      28076920     
        30   302.59604     -113.28563      4192.6706     -111.58454     -1.7010941      28076920     
        40   300.62527     -113.27968      6255.5444     -111.57892     -1.7007682      28076920     
        50   297.47083     -113.27023      6362.8029     -111.56983     -1.700403       28076920     
        60   294.82187     -113.26229      6159.6187     -111.56225     -1.7000342      28076920     
        70   294.73873     -113.262        6821.3995     -111.56234     -1.6996611      28076920     
        80   297.7812      -113.27105      8243.841      -111.57176     -1.699289       28076920     
        90   301.63837     -113.28255      9412.3145     -111.58359     -1.6989588      28076920     
       100   302.57931     -113.2853       10403.961     -111.58658     -1.698722       28076920     
Loop time of 62.8356 on 352 procs for 100 steps with 2490368 atoms

Performance: 0.014 ns/day, 1745.435 hours/ns, 1.591 timesteps/s, 3.963 Matom-step/s
89.3% CPU use with 352 MPI tasks x 1 OpenMP threads

MPI task timing breakdown:
Section |  min time  |  avg time  |  max time  |%varavg| %total
---------------------------------------------------------------
Pair    | 36.907     | 39.822     | 42.536     |  17.8 | 63.37
Neigh   | 0.54727    | 0.55577    | 0.58492    |   0.7 |  0.88
Comm    | 0.3553     | 2.8122     | 6.0683     |  68.0 |  4.48
Output  | 0.0064442  | 0.30716    | 0.39811    |  25.3 |  0.49
Modify  | 19.236     | 19.334     | 19.539     |   1.6 | 30.77
Other   |            | 0.004808   |            |       |  0.01

Nlocal:        7074.91 ave        7184 max        6983 min
Histogram: 16 31 62 32 103 42 2 0 33 31
Nghost:        18261.8 ave       18465 max       18032 min
Histogram: 32 10 23 31 32 96 64 0 24 40
Neighs:    2.21523e+06 ave 2.24454e+06 max 2.19114e+06 min
Histogram: 9 29 66 98 42 16 28 0 33 31

Total # of neighbors = 7.7976144e+08
Ave neighs/atom = 313.11093
Neighbor list builds = 5
Dangerous builds not checked
Total wall time: 0:01:04
LAMMPS (17 Apr 2024 - Development - a8687b5)
OMP_NUM_THREADS environment is not set. Defaulting to 1 thread. (src/comm.cpp:98)
  using 1 OpenMP thread(s) per MPI task
Reading data file ...
  triclinic box = (0 0 0) to (22.326 11.1412 13.778966) with tilt (0 -5.02603 0)
  11 by 4 by 8 MPI processor grid
  reading atoms ...
  304 atoms
  reading velocities ...
  304 velocities
  read_data CPU = 0.071 seconds
Replication is creating a 32x16x16 = 8192 times larger system...
  triclinic box = (0 0 0) to (714.432 178.2592 220.46346) with tilt (0 -80.41648 0)
  22 by 4 by 4 MPI processor grid
  bounding box image = (0 -1 -1) to (0 1 1)
  bounding box extra memory = 0.03 MB
  average # of replicas added to proc = 93.32 out of 8192 (1.14%)
  2490368 atoms
  replicate CPU = 0.070 seconds
Neighbor list info ...
  update: every = 20 steps, delay = 0 steps, check = no
  max neighbors/atom: 2000, page size: 100000
  master list distance cutoff = 11
  ghost atom cutoff = 11
  binsize = 5.5, bins = 145 33 41
  2 neighbor lists, perpetual/occasional/extra = 2 0 0
  (1) pair reaxff, perpetual
      attributes: half, newton off, ghost
      pair build: half/bin/ghost/newtoff
      stencil: full/ghost/bin/3d
      bin: standard
  (2) fix qeq/reax, perpetual, copy from (1)
      attributes: half, newton off
      pair build: copy
      stencil: none
      bin: none
Setting up Verlet run ...
  Unit style    : real
  Current step  : 0
  Time step     : 0.1
Per MPI rank memory allocation (min/avg/max) = 422.8 | 425 | 427.8 Mbytes
   Step          Temp          PotEng         Press          E_vdwl         E_coul         Volume    
         0   300           -113.27833      439.019       -111.57687     -1.7014647      28076920     
        10   300.80942     -113.28057      771.84454     -111.57914     -1.7014344      28076920     
        20   302.48468     -113.28543      1617.8995     -111.5841      -1.7013225      28076920     
        30   302.59604     -113.28563      4192.6706     -111.58454     -1.7010941      28076920     
        40   300.62527     -113.27968      6255.5444     -111.57892     -1.7007682      28076920     
        50   297.47083     -113.27023      6362.8029     -111.56983     -1.700403       28076920     
        60   294.82187     -113.26229      6159.6187     -111.56225     -1.7000342      28076920     
        70   294.73873     -113.262        6821.3995     -111.56234     -1.6996611      28076920     
        80   297.7812      -113.27105      8243.841      -111.57176     -1.699289       28076920     
        90   301.63837     -113.28255      9412.3145     -111.58359     -1.6989588      28076920     
       100   302.57931     -113.2853       10403.961     -111.58658     -1.698722       28076920     
Loop time of 63.2036 on 352 procs for 100 steps with 2490368 atoms

Performance: 0.014 ns/day, 1755.655 hours/ns, 1.582 timesteps/s, 3.940 Matom-step/s
88.9% CPU use with 352 MPI tasks x 1 OpenMP threads

MPI task timing breakdown:
Section |  min time  |  avg time  |  max time  |%varavg| %total
---------------------------------------------------------------
Pair    | 36.916     | 39.813     | 42.242     |  17.7 | 62.99
Neigh   | 0.54745    | 0.55538    | 0.59653    |   0.7 |  0.88
Comm    | 0.28714    | 2.8058     | 5.8579     |  67.5 |  4.44
Output  | 0.078708   | 0.10165    | 0.13456    |   5.2 |  0.16
Modify  | 19.791     | 19.923     | 20.199     |   2.3 | 31.52
Other   |            | 0.004826   |            |       |  0.01

Nlocal:        7074.91 ave        7184 max        6983 min
Histogram: 16 31 62 32 103 42 2 0 33 31
Nghost:        18261.8 ave       18465 max       18032 min
Histogram: 32 10 23 31 32 96 64 0 24 40
Neighs:    2.21523e+06 ave 2.24454e+06 max 2.19114e+06 min
Histogram: 9 29 66 98 42 16 28 0 33 31

Total # of neighbors = 7.7976144e+08
Ave neighs/atom = 313.11093
Neighbor list builds = 5
Dangerous builds not checked
Total wall time: 0:01:04
LAMMPS (17 Apr 2024 - Development - a8687b5)
OMP_NUM_THREADS environment is not set. Defaulting to 1 thread. (src/comm.cpp:98)
  using 1 OpenMP thread(s) per MPI task
Reading data file ...
  triclinic box = (0 0 0) to (22.326 11.1412 13.778966) with tilt (0 -5.02603 0)
  11 by 4 by 8 MPI processor grid
  reading atoms ...
  304 atoms
  reading velocities ...
  304 velocities
  read_data CPU = 0.071 seconds
Replication is creating a 32x16x16 = 8192 times larger system...
  triclinic box = (0 0 0) to (714.432 178.2592 220.46346) with tilt (0 -80.41648 0)
  22 by 4 by 4 MPI processor grid
  bounding box image = (0 -1 -1) to (0 1 1)
  bounding box extra memory = 0.03 MB
  average # of replicas added to proc = 93.32 out of 8192 (1.14%)
  2490368 atoms
  replicate CPU = 0.070 seconds
Neighbor list info ...
  update: every = 20 steps, delay = 0 steps, check = no
  max neighbors/atom: 2000, page size: 100000
  master list distance cutoff = 11
  ghost atom cutoff = 11
  binsize = 5.5, bins = 145 33 41
  2 neighbor lists, perpetual/occasional/extra = 2 0 0
  (1) pair reaxff, perpetual
      attributes: half, newton off, ghost
      pair build: half/bin/ghost/newtoff
      stencil: full/ghost/bin/3d
      bin: standard
  (2) fix qeq/reax, perpetual, copy from (1)
      attributes: half, newton off
      pair build: copy
      stencil: none
      bin: none
Setting up Verlet run ...
  Unit style    : real
  Current step  : 0
  Time step     : 0.1
Per MPI rank memory allocation (min/avg/max) = 422.8 | 425 | 427.8 Mbytes
   Step          Temp          PotEng         Press          E_vdwl         E_coul         Volume    
         0   300           -113.27833      439.019       -111.57687     -1.7014647      28076920     
        10   300.80942     -113.28057      771.84454     -111.57914     -1.7014344      28076920     
        20   302.48468     -113.28543      1617.8995     -111.5841      -1.7013225      28076920     
        30   302.59604     -113.28563      4192.6706     -111.58454     -1.7010941      28076920     
        40   300.62527     -113.27968      6255.5444     -111.57892     -1.7007682      28076920     
        50   297.47083     -113.27023      6362.8029     -111.56983     -1.700403       28076920     
        60   294.82187     -113.26229      6159.6187     -111.56225     -1.7000342      28076920     
        70   294.73873     -113.262        6821.3995     -111.56234     -1.6996611      28076920     
        80   297.7812      -113.27105      8243.841      -111.57176     -1.699289       28076920     
        90   301.63837     -113.28255      9412.3145     -111.58359     -1.6989588      28076920     
       100   302.57931     -113.2853       10403.961     -111.58658     -1.698722       28076920     
Loop time of 63.2036 on 352 procs for 100 steps with 2490368 atoms

Performance: 0.014 ns/day, 1755.655 hours/ns, 1.582 timesteps/s, 3.940 Matom-step/s
88.9% CPU use with 352 MPI tasks x 1 OpenMP threads

MPI task timing breakdown:
Section |  min time  |  avg time  |  max time  |%varavg| %total
---------------------------------------------------------------
Pair    | 36.916     | 39.813     | 42.242     |  17.7 | 62.99
Neigh   | 0.54745    | 0.55538    | 0.59653    |   0.7 |  0.88
Comm    | 0.28714    | 2.8058     | 5.8579     |  67.5 |  4.44
Output  | 0.078708   | 0.10165    | 0.13456    |   5.2 |  0.16
Modify  | 19.791     | 19.923     | 20.199     |   2.3 | 31.52
Other   |            | 0.004826   |            |       |  0.01

Nlocal:        7074.91 ave        7184 max        6983 min
Histogram: 16 31 62 32 103 42 2 0 33 31
Nghost:        18261.8 ave       18465 max       18032 min
Histogram: 32 10 23 31 32 96 64 0 24 40
Neighs:    2.21523e+06 ave 2.24454e+06 max 2.19114e+06 min
Histogram: 9 29 66 98 42 16 28 0 33 31

Total # of neighbors = 7.7976144e+08
Ave neighs/atom = 313.11093
Neighbor list builds = 5
Dangerous builds not checked
Total wall time: 0:01:04
