Defaulted container "qmcpack" out of: qmcpack, flux-view (init)
#!/bin/bash
set -euo pipefail
mkdir -p /tmp/output
flux resource list
for i in {1..5}
do
  echo "FLUX-RUN START qmcpack-iter-$i"
  flux run --setattr=user.study_id=qmcpack-iter-$i -N64 -n 5632 -o cpu-affinity=per-task -o gpu-affinity=off    qmcpack NiO-fcc-S8-dmc-strongscale.xml |& tee /tmp/qmcpack.out
    echo "FLUX-RUN END qmcpack-iter-$i"
done


output=./results/${app}
(apt-get update && apt-get install -y jq) || (yum update -y && yum install -y jq)
mkdir -p $output
for jobid in $(flux jobs -a --json | jq -r .jobs[].id); do
    echo
    study_id=$(flux job info $jobid jobspec | jq -r ".attributes.user.study_id")
    echo "FLUX-JOB START ${jobid} ${study_id}"
    echo "FLUX-JOB-JOBSPEC START"
    flux job info $jobid jobspec
    echo "FLUX-JOB-JOBSPEC END" 
    
    echo "FLUX-JOB-RESOURCES START"
    flux job info ${jobid} R
    echo "FLUX-JOB-RESOURCES END"
    echo "FLUX-JOB-EVENTLOG START" 
    flux job info $jobid guest.exec.eventlog
    echo "FLUX-JOB-EVENTLOG END" 
    echo "FLUX-JOB END ${jobid} ${study_id}"
done
echo "FLUX JOB STATS"
flux job stats         

     STATE NNODES   NCORES    NGPUS NODELIST
      free     64     5632        0 qmcpack-[0-63]
 allocated      0        0        0 
      down      0        0        0 
FLUX-RUN START qmcpack-iter-1
WARNING: MPI environment inconsistency?
running program qmcpack compiled with Open MPI v4.1.2 but allocated with PMI (Hydra or MPICH) (np = 5632). Try running with `mpirun.openmpi` or load OpenMPI module.

  Input file(s): NiO-fcc-S8-dmc-strongscale.xml 

=====================================================
                    QMCPACK 3.16.0

       (c) Copyright 2003-  QMCPACK developers

                    Please cite:
 J. Kim et al. J. Phys. Cond. Mat. 30 195901 (2018)
      https://doi.org/10.1088/1361-648X/aab9c3
=====================================================
  Global options 

  Total number of MPI ranks = 5632
  Number of MPI groups      = 1
  MPI group ID              = 0
  Number of ranks in group  = 5632
  MPI ranks per node        = 88
  OMP 1st level threads     = 1
  OMP nested threading disabled or only 1 thread on the 2nd level

  Precision used in this calculation, see definitions in the manual:
  Base precision      = float
  Full precision      = double

  CPU only build
  Real build. QMC_COMPLEX=OFF
  Timer build option is enabled. Current timer level is coarse

=================================================
--- Memory usage report : when QMCPACK starts ---
=================================================
Available memory on node 0, free + buffers :  324972 MiB
Memory footprint by rank 0 on node 0       :      27 MiB
=================================================

  Input XML = NiO-fcc-S8-dmc-strongscale.xml

  Project = NiO-fcc-S8-dmc
  date    = 2025-04-30 04:55:50 UTC
  host    = qmcpack-0


 Random Number
 -------------
  Offset for the random number seeds from input file (mod 1024): 2

  Range of prime numbers to use as seeds over processors and threads = 7-55541


 Lattice
 -------
  Simulation cell radius   = 5.572780 bohr
  Wigner-Seitz cell radius = 5.572779 bohr

  Overwriting global supercell 
  Long-range breakup parameters:
    rc*kc = 15.000000; rc = 5.572779; kc = 2.691655; tol = 0.000300
  KContainer initialised with cutoff 2.691655
   # of K-shell  = 47
   # of K points = 656

  Lattice (bohr):      7.8811001778      7.8811001778      0.0000000000
                      -7.8811001778      7.8811001778      0.0000000000
                       0.0000000000      0.0000000000     15.7622003555

  Boundary Conditions:  p  p  p 

  Volume (bohr^3) = 1958.0354003906

  Reciprocal vectors without 2*pi.
    g_1 =       0.0634429157      0.0634429157     -0.0000000000
    g_2 =      -0.0634429157      0.0634429157      0.0000000000
    g_3 =       0.0000000000     -0.0000000000      0.0634429157

  Metric tensor in real-space.
    h_1 = 124.2234802246 0.0000001003 0.0000000000 
    h_2 = 0.0000001003 124.2234802246 0.0000000000 
    h_3 = 0.0000000000 0.0000000000 248.4469604492 

  Metric tensor in g-space.
    h_1 = 0.3178015351 -0.0000000056 0.0000000000 
    h_2 = -0.0000000056 0.3178015351 0.0000000000 
    h_3 = 0.0000000000 0.0000000000 0.1589007676 

 Particle Set
 ------------
  Name: i   Offload : no

  All the species have the same mass 1.0000000000

  Creating Structure Factor for periodic systems 2.6916551590
  Particle set size: 32   Groups : 2


 Particle Set
 ------------
  Name: e   Offload : no

  All the species have the same mass 1.0000000000

  Creating Structure Factor for periodic systems 2.6916551590
  Particle set size: 384   Groups : 2


 Many-body wavefunction
 -------------------
  Name: psi0   Tasking: no

WARNING !!!!!!! Deprecated input style: creating SPO set inside determinantset. Support for this usage will soon be removed. SPO sets should be built outside using sposet_collection.
  Created SPOSet builder named 'einspline' of type einspline

   Single Slater determinant
   -------------------------

     Determinant
     -----------
      Name: updet   Spin group: 0   SPO name: updet

WARNING !!!!!!! Deprecated input style: creating SPO set inside determinantset. Support for this usage will soon be removed. SPO sets should be built outside using sposet_collection.
      Create a new SPO set updet

     Single particle orbitals (SPO)
     ------------------------------
      Name: updet   Type: spline   Builder class name: EinsplineSetBuilder

	  MIXED_PRECISION=1 Overwriting the einspline storage to single precision.
  TileMatrix = 
 [  1  1  1
    0  2 -2
    1 -1 -1 ]
  Reading 192 orbitals from HDF5 file.
  HDF5 orbital file version 2.1.0
  Reading orbital file in ESHDF format.
  ESHDF orbital file version 2.1.0
  Lattice = 
    [  3.940550  3.940550  7.881100
       0.000000  3.940550 -3.940550
       3.940550  0.000000 -3.940550 ]
  SuperLattice = 
    [  7.881100  7.881100  0.000000
      -7.881100  7.881100  0.000000
       0.000000  0.000000 15.762200 ]

bands=29, elecs=384, spins=2, twists=8, muffin tins=0, core states=0
atomic orbital=0
Atom type(0) = 8
Atom type(1) = 8
Atom type(2) = 28
Atom type(3) = 28
   Skip initialization of the density
TIMER  EinsplineSetBuilder::ReadOrbitalInfo 0.0026094620
TIMER  EinsplineSetBuilder::BroadcastOrbitalInfo 0.0144779320
Found 1 distinct supercell twists.
number of things
8
8
Super twist #0:  [   0.00000   0.00000   0.00000 ]
WARNING twist attribute exists. twistnum attribute ignored. To prevent this message, remove twistnum from input.
  Using supercell twist 0:  [   0.00000   0.00000   0.00000]
Using 1 copies of twist angle [ 0.000,  0.000,  0.000]
Using 2 copies of twist angle [ 0.000,  0.250, -0.250]
Using 1 copies of twist angle [ 0.000,  0.500,  0.500]
Using 1 copies of twist angle [ 0.500,  0.000,  0.500]
Using 2 copies of twist angle [ 0.500,  0.250,  0.250]
Using 1 copies of twist angle [ 0.500,  0.500,  0.000]
Using complex splines.
174 complex-valued orbitals supplied by h5 can be expanded up to 232 SPOs.
Sorting the bands now:
  Occupying bands based on energy in mode "ground"
We will read 144 distinct complex-valued orbitals from h5.
There are 0 core states and 144 valence states.
    Using real valued spline SPOs with complex single precision storage (C2R).
    Running on CPU.
BandInfoGroup::selectBands bigspace has 174 distinct orbitals 
BandInfoGroup::selectBands using distinct orbitals [0,144)
  Number of distinct bands 144
  First Band index 0
  First SPO index 0
  Size of SPOs 192
  ClassName = SplineC2R
  Using complex einspline table
NumDistinctOrbitals 144 numOrbs = 192
B-spline mesh factor is 0.9000000000
B-spline mesh size is (112, 66, 66)
Maxmimum number of Gvecs 35419
  Using meshsize=               112                66                66
  vs input meshsize=               112                66                66
MEMORY 601 MB allocated for the coefficients in 3D spline orbital representation
Start transforming plane waves to 3D B-Splines.
  Time to gather the table = 5.6332841610
  Time to bcast the table = 4.9407355660
  SplineSetReader initialize_spline_pio 13.3614580400 sec
Time spent in creating B-spline SPOs 13.9535950280sec
      Using rank-32 delayed update
      Using walker batching.
      Running OpenMP offload code path on CPU. Only SM1 update is supported. delay_rank is ignored.


     Determinant
     -----------
      Name: downdet   Spin group: 1   SPO name: downdet

WARNING !!!!!!! Deprecated input style: creating SPO set inside determinantset. Support for this usage will soon be removed. SPO sets should be built outside using sposet_collection.
      Create a new SPO set downdet

     Single particle orbitals (SPO)
     ------------------------------
      Name: downdet   Type: spline   Builder class name: EinsplineSetBuilder

	  MIXED_PRECISION=1 Overwriting the einspline storage to single precision.
174 complex-valued orbitals supplied by h5 can be expanded up to 232 SPOs.
Sorting the bands now:
  Occupying bands based on energy in mode "ground"
We will read 144 distinct complex-valued orbitals from h5.
There are 0 core states and 144 valence states.
BandInfoGroup::selectBands bigspace has 174 distinct orbitals 
BandInfoGroup::selectBands using distinct orbitals [0,144)
  Number of distinct bands 144
  First Band index 0
  First SPO index 0
  Size of SPOs 192
  ClassName = SplineC2R
  Using complex einspline table
NumDistinctOrbitals 144 numOrbs = 192
B-spline mesh factor is 0.9000000000
B-spline mesh size is (112, 66, 66)
Maxmimum number of Gvecs 35419
  Using meshsize=               112                66                66
  vs input meshsize=               112                66                66
MEMORY 601 MB allocated for the coefficients in 3D spline orbital representation
Start transforming plane waves to 3D B-Splines.
  Time to gather the table = 5.4389006880
  Time to bcast the table = 4.4800142610
  SplineSetReader initialize_spline_pio 12.8264545170 sec
Time spent in creating B-spline SPOs 13.1988453800sec
      Using rank-32 delayed update
      Using walker batching.
      Running OpenMP offload code path on CPU. Only SM1 update is supported. delay_rank is ignored.

  Added a fermionic WaveFunctionComponent SlaterDet

   Jastrow
   -------
    Name: J2   Type: Two-Body   Function: Bspline

    Radial function for species: u - u
     Number of parameters: 10
     Cusp: -0.2500000000
     Cutoff radius: 5.5727791786

     Name                        Value Type Recompute Use Index
     ---- ---------------------------- ---- --------- --- -----
     uu_0                 2.862236e-01    1         1  ON     0
     uu_1                 1.947737e-01    1         1  ON     1
     uu_2                 1.319545e-01    1         1  ON     2
     uu_3                 8.893394e-02    1         1  ON     3
     uu_4                 5.695576e-02    1         1  ON     4
     uu_5                 3.565959e-02    1         1  ON     5
     uu_6                 2.206950e-02    1         1  ON     6
     uu_7                 1.296086e-02    1         1  ON     7
     uu_8                 6.601007e-03    1         1  ON     8
     uu_9                 2.787144e-03    1         1  ON     9

    Radial function for species: u - d
     Number of parameters: 10
     Cusp: -0.5
     Cutoff radius: 5.57278

     Name                        Value Type Recompute Use Index
     ---- ---------------------------- ---- --------- --- -----
     ud_0                 3.689310e-01    1         1  ON     0
     ud_1                 2.226722e-01    1         1  ON     1
     ud_2                 1.484297e-01    1         1  ON     2
     ud_3                 9.617039e-02    1         1  ON     3
     ud_4                 5.918787e-02    1         1  ON     4
     ud_5                 3.660856e-02    1         1  ON     5
     ud_6                 2.262412e-02    1         1  ON     6
     ud_7                 1.322280e-02    1         1  ON     7
     ud_8                 6.736329e-03    1         1  ON     8
     ud_9                 2.871931e-03    1         1  ON     9


   Jastrow
   -------
    Name: J1   Type: One-Body   Function: Bspline

    Radial function for element: O - e
     Number of parameters: 10
     Cusp: 0
     Cutoff radius: 4.82617

     Name                        Value Type Recompute Use Index
     ---- ---------------------------- ---- --------- --- -----
      O_0                -2.249113e-01    1         1  ON     0
      O_1                -1.847495e-01    1         1  ON     1
      O_2                -1.154814e-01    1         1  ON     2
      O_3                -4.000123e-02    1         1  ON     3
      O_4                 1.731711e-02    1         1  ON     4
      O_5                 5.360132e-02    1         1  ON     5
      O_6                 5.983041e-02    1         1  ON     6
      O_7                 3.956000e-02    1         1  ON     7
      O_8                 1.739980e-02    1         1  ON     8
      O_9                 5.162164e-03    1         1  ON     9

    Radial function for element: Ni - e
     Number of parameters: 10
     Cusp: 0
     Cutoff radius: 4.82617

     Name                        Value Type Recompute Use Index
     ---- ---------------------------- ---- --------- --- -----
     Ni_0                -1.644855e+00    1         1  ON     0
     Ni_1                -1.470659e+00    1         1  ON     1
     Ni_2                -1.078894e+00    1         1  ON     2
     Ni_3                -6.878964e-01    1         1  ON     3
     Ni_4                -3.907005e-01    1         1  ON     4
     Ni_5                -1.962104e-01    1         1  ON     5
     Ni_6                -8.512755e-02    1         1  ON     6
     Ni_7                -2.752357e-02    1         1  ON     7
     Ni_8                -4.017983e-03    1         1  ON     8
     Ni_9                 7.665934e-04    1         1  ON     9

  Adding psi0 TrialWaveFunction to the pool

 Hamiltonian and observables
 ---------------------------
  Name: h0

  QMCHamiltonian::addOperator Kinetic to H, physical Hamiltonian 

   Pseudo Potential
   ----------------
    Name: PseudoPot   Wavefunction : psi0


  Adding pseudopotential for O
   Linear grid  ri=0 rf=10 npts = 10001
    ECPComponentBuilder::buildSemiLocalAndLocal 
WARNING Nrule was not determined from qmcpack input or pseudopotential file. Setting sensible default.
    Assuming Hartree unit
 l-local setting found in pseudopotential file and used.
   Number of angular momentum channels 2
   Maximum angular momentum channel (Lmax) 1
   Creating a Linear Grid Rmax=0.927291
  Using global grid with delta = 0.001
   Making L=0 a local potential with a radial cutoff of 9.999
  Quadrature Nrule: 4
    Non-local pseudopotential parameters
    Maximum angular momentum = 1
    Number of non-local channels = 1
       l(0)=1
    Cutoff radius = 0.928
    Number of spherical integration grid points = 12
    Spherical grid and weights: 
                        1                 0                 0       0.08333333582
                       -1   1.224646853e-16                 0       0.08333333582
             0.4472135901      0.8944271803                 0       0.08333333582
            -0.4472135901      0.7236068249      0.5257310867       0.08333333582
             0.4472135901      0.2763932049      0.8506507874       0.08333333582
            -0.4472135901     -0.2763932049      0.8506507874       0.08333333582
             0.4472135901     -0.7236068249      0.5257310867       0.08333333582
            -0.4472135901     -0.8944271803   1.095357398e-16       0.08333333582
             0.4472135901     -0.7236068249     -0.5257310867       0.08333333582
            -0.4472135901     -0.2763932049     -0.8506507874       0.08333333582
             0.4472135901      0.2763932049     -0.8506507874       0.08333333582
            -0.4472135901      0.7236068249     -0.5257310867       0.08333333582
    Maximum cutoff radius 0.9279999733

  Adding pseudopotential for Ni
   Linear grid  ri=0 rf=10 npts = 10001
    ECPComponentBuilder::buildSemiLocalAndLocal 
WARNING Nrule was not determined from qmcpack input or pseudopotential file. Setting sensible default.
    Assuming Hartree unit
 l-local setting found in pseudopotential file and used.
   Number of angular momentum channels 3
   Maximum angular momentum channel (Lmax) 2
   Creating a Linear Grid Rmax=0.8024579883
  Using global grid with delta = 0.001
   Making L=1 a local potential with a radial cutoff of 9.998999311
  Quadrature Nrule: 4
    Non-local pseudopotential parameters
    Maximum angular momentum = 2
    Number of non-local channels = 2
       l(0)=0
       l(1)=2
    Cutoff radius = 0.8029999733
    Number of spherical integration grid points = 12
    Spherical grid and weights: 
                        1                 0                 0       0.08333333582
                       -1   1.224646853e-16                 0       0.08333333582
             0.4472135901      0.8944271803                 0       0.08333333582
            -0.4472135901      0.7236068249      0.5257310867       0.08333333582
             0.4472135901      0.2763932049      0.8506507874       0.08333333582
            -0.4472135901     -0.2763932049      0.8506507874       0.08333333582
             0.4472135901     -0.7236068249      0.5257310867       0.08333333582
            -0.4472135901     -0.8944271803   1.095357398e-16       0.08333333582
             0.4472135901     -0.7236068249     -0.5257310867       0.08333333582
            -0.4472135901     -0.2763932049     -0.8506507874       0.08333333582
             0.4472135901      0.2763932049     -0.8506507874       0.08333333582
            -0.4472135901      0.7236068249     -0.5257310867       0.08333333582
    Maximum cutoff radius 0.8029999733

  Creating CoulombHandler with the Esler Optimized Breakup. 
  KContainer initialised with cutoff 15.06702805
   # of K-shell  = 3049
   # of K points = 113346

  NUMBER OF OPT_BREAK KVECS = 41267462595
 finding kc:  2.691655159 , 2.691655159
  LRBreakp parameter Kc =2.691655159
    Continuum approximation in k = [15.06702851,1076.662076)

   LR Breakup chi^2 = 2.00847e-16
   Constant of PBCAB 962.12
  Rcut                5.5728
  Maximum K shell     46
  Number of k vectors 656
    CoulombPBCAB::add 
 Setting a linear grid=[0,5.5728) number of grid =5573
    Creating the short-range pseudopotential for species 0
    Creating the short-range pseudopotential for species 1
  QMCHamiltonian::addOperator LocalECP to H, physical Hamiltonian 

  Using NonLocalECP potential 
    Maximum grid on a sphere for NonLocalECPotential: 12
    Using batched ratio computing in NonLocalECP
  QMCHamiltonian::addOperator NonLocalECP to H, physical Hamiltonian 

   Coulomb Potential
   -----------------
    Name: IonIon   Type: AA   PBC: yes

  Clone CoulombHandler. 
   PBCAA self-interaction term -1570.7
   PBCAA total constant -2051.7
Checking ion-ion Ewald energy against reference...
  Check passed.
  Maximum K shell 46
  Number of k vectors 656
  Fixed Coulomb potential for i
    e-e Madelung Const. =-0.10848083
    Vtot     =-1914.387
  QMCHamiltonian::addOperator IonIon to H, physical Hamiltonian 
QMCHamiltonian::addOperatorType added type coulomb named IonIon

   Coulomb Potential
   -----------------
    Name: ElecElec   Type: AA   PBC: yes

  Clone CoulombHandler. 
   PBCAA self-interaction term -104.71003
   PBCAA total constant -585.77245
  Maximum K shell 46
  Number of k vectors 656
  Fixed Coulomb potential for e
    e-e Madelung Const. =-0.10848083
    Vtot     =0
  QMCHamiltonian::addOperator ElecElec to H, physical Hamiltonian 
QMCHamiltonian::addOperatorType added type coulomb named ElecElec

  QMCHamiltonian::add2WalkerProperty added
    5 to P::PropertyList 
    0 to P::Collectables 
    starting Index of the observables in P::PropertyList = 9
ParticleSetPool::randomize 1 ParticleSet.
<init source="i" target="e">
</init>
  Initialization Execution time = 28.17 secs
=========================================================
 Summary of QMC systems 
=========================================================
ParticleSetPool has: 

  ParticleSet 'e' contains 384 particles :  u(192) d(192)

    u -2.8980975151e+00  1.2723527908e+01  4.7049961090e+00
    u  2.6433546543e+00  4.8306803703e+00  4.0376114845e+00
    u  2.6977155209e+00  4.2291159630e+00  4.8660554886e+00
    u -7.2871890068e+00  7.3566861153e+00  1.0459032059e+01
    u -9.9708765745e-01  1.4647432327e+01  1.1324078560e+01
    u  6.5424423218e+00  8.6513185501e+00  1.2136655807e+01
    u  1.2691295147e+00  3.4298646450e+00  8.6640300751e+00
    u -2.7991321683e-01  4.9056463242e+00  6.6667256355e+00
    u -3.6815218627e-02  2.8308324814e+00  8.9998674393e+00
    u  6.4845043421e-01  9.1628141403e+00  4.5895419121e+00
    (... and 374 more particle positions ...)

  Distance table for similar particles (A-A):
    source/target: e
    Using structure-of-arrays (SoA) data layout
    Distance computations use general periodic cell in 3D without corner image checks.

  Distance table for dissimilar particles (A-B):
    source: i  target: e
    Using structure-of-arrays (SoA) data layout
    Distance computations use general periodic cell in 3D without corner image checks.


  ParticleSet 'i' contains 32 particles :  O(16) Ni(16)

    O  3.9405500889e+00  3.9405500889e+00  3.9405500889e+00
    O  0.0000000000e+00  0.0000000000e+00  1.1821650505e+01
    O  0.0000000000e+00  3.9405500889e+00  7.8811001778e+00
    O  0.0000000000e+00  7.8811001778e+00  3.9405500889e+00
    O  3.9405500889e+00  7.8811001778e+00  0.0000000000e+00
    O -3.9405500889e+00  3.9405500889e+00  1.1821650505e+01
    O -3.9405503273e+00  7.8811001778e+00  7.8811001778e+00
    O -1.1920928955e-07  1.1821650505e+01  0.0000000000e+00
    O  0.0000000000e+00  0.0000000000e+00  3.9405500889e+00
    O  0.0000000000e+00  3.9405500889e+00  0.0000000000e+00
    (... and 22 more particle positions ...)

  Distance table for similar particles (A-A):
    source/target: i
    Using structure-of-arrays (SoA) data layout
    Distance computations use general periodic cell in 3D without corner image checks.


  Hamiltonian h0
  Kinetic         Kinetic energy
  LocalECP        CoulombPBCAB potential source: i
  NonLocalECP     NonLocalECPotential: i
  IonIon          CoulombPBCAA potential: i_i
  ElecElec        CoulombPBCAA potential: e_e


========================================
  Reading VMC driver XML input section
========================================
<estimator> nodes not contained in <estimators>...</estimators> is a deprecated input xml idiom
  Random walking without drift
EstimatorManager setup for this section:
  Main Estimator:  LocalEnergy

=========================================================
  Start VMCBatched
  File Root NiO-fcc-S8-dmc.s001
=========================================================
==============================================================
--- Memory usage report : VMCBatched before initialization ---
==============================================================
Fatal Error. Aborting at Running on 5632 MPI ranks.  The request of 128 global walkers cannot be satisfied! Need at least one walker per MPI rank.
Available memory on node 0, free + buffers :  217165 MiB
--------------------------------------------------------------------------
Memory footprint by rank 0 on node 0       :    1288 MiB
--------------------------------------------------------------------------
--------------------------------------------------------------------------
--------------------------------------------------------------------------
--------------------------------------------------------------------------
--------------------------------------------------------------------------
--------------------------------------------------------------------------
--------------------------------------------------------------------------
--------------------------------------------------------------------------
--------------------------------------------------------------------------
--------------------------------------------------------------------------
MPI_ABORT was invoked on rank 41 in communicator world
--------------------------------------------------------------------------
--------------------------------------------------------------------------
--------------------------------------------------------------------------
--------------------------------------------------------------------------
==============================================================
--------------------------------------------------------------------------
--------------------------------------------------------------------------
--------------------------------------------------------------------------
--------------------------------------------------------------------------
--------------------------------------------------------------------------
--------------------------------------------------------------------------
MPI_ABORT was invoked on rank 81 in communicator world
MPI_ABORT was invoked on rank 80 in communicator world
MPI_ABORT was invoked on rank 79 in communicator world
--------------------------------------------------------------------------
MPI_ABORT was invoked on rank 77 in communicator world
--------------------------------------------------------------------------
--------------------------------------------------------------------------
--------------------------------------------------------------------------
--------------------------------------------------------------------------
MPI_ABORT was invoked on rank 72 in communicator world
--------------------------------------------------------------------------
MPI_ABORT was invoked on rank 70 in communicator world
--------------------------------------------------------------------------
--------------------------------------------------------------------------
MPI_ABORT was invoked on rank 67 in communicator world
--------------------------------------------------------------------------
--------------------------------------------------------------------------
--------------------------------------------------------------------------
--------------------------------------------------------------------------
--------------------------------------------------------------------------
--------------------------------------------------------------------------
--------------------------------------------------------------------------
--------------------------------------------------------------------------
--------------------------------------------------------------------------
MPI_ABORT was invoked on rank 57 in communicator world
--------------------------------------------------------------------------
--------------------------------------------------------------------------
--------------------------------------------------------------------------
--------------------------------------------------------------------------
--------------------------------------------------------------------------
--------------------------------------------------------------------------
--------------------------------------------------------------------------
--------------------------------------------------------------------------
--------------------------------------------------------------------------
--------------------------------------------------------------------------
--------------------------------------------------------------------------
MPI_ABORT was invoked on rank 45 in communicator world
--------------------------------------------------------------------------
MPI_ABORT was invoked on rank 43 in communicator world
--------------------------------------------------------------------------
with errorcode 1.
MPI_ABORT was invoked on rank 40 in communicator world
--------------------------------------------------------------------------
--------------------------------------------------------------------------
--------------------------------------------------------------------------
--------------------------------------------------------------------------
--------------------------------------------------------------------------
--------------------------------------------------------------------------
MPI_ABORT was invoked on rank 32 in communicator world
--------------------------------------------------------------------------
--------------------------------------------------------------------------
--------------------------------------------------------------------------
--------------------------------------------------------------------------
--------------------------------------------------------------------------
--------------------------------------------------------------------------
MPI_ABORT was invoked on rank 25 in communicator world
--------------------------------------------------------------------------
--------------------------------------------------------------------------
--------------------------------------------------------------------------
--------------------------------------------------------------------------
--------------------------------------------------------------------------
--------------------------------------------------------------------------
--------------------------------------------------------------------------
MPI_ABORT was invoked on rank 17 in communicator world
--------------------------------------------------------------------------
--------------------------------------------------------------------------
--------------------------------------------------------------------------
--------------------------------------------------------------------------
--------------------------------------------------------------------------
--------------------------------------------------------------------------
--------------------------------------------------------------------------
--------------------------------------------------------------------------
--------------------------------------------------------------------------
--------------------------------------------------------------------------
--------------------------------------------------------------------------
--------------------------------------------------------------------------
--------------------------------------------------------------------------
--------------------------------------------------------------------------
--------------------------------------------------------------------------
--------------------------------------------------------------------------
--------------------------------------------------------------------------
--------------------------------------------------------------------------
MPI_ABORT was invoked on rank 87 in communicator world
MPI_ABORT was invoked on rank 86 in communicator world
MPI_ABORT was invoked on rank 85 in communicator world
MPI_ABORT was invoked on rank 84 in communicator world
MPI_ABORT was invoked on rank 83 in communicator world
MPI_ABORT was invoked on rank 82 in communicator world
with errorcode 1.
with errorcode 1.
with errorcode 1.
MPI_ABORT was invoked on rank 78 in communicator world
with errorcode 1.
MPI_ABORT was invoked on rank 76 in communicator world
MPI_ABORT was invoked on rank 75 in communicator world
MPI_ABORT was invoked on rank 74 in communicator world
MPI_ABORT was invoked on rank 73 in communicator world
with errorcode 1.
MPI_ABORT was invoked on rank 71 in communicator world
with errorcode 1.
MPI_ABORT was invoked on rank 69 in communicator world
MPI_ABORT was invoked on rank 68 in communicator world
with errorcode 1.
MPI_ABORT was invoked on rank 66 in communicator world
MPI_ABORT was invoked on rank 65 in communicator world
MPI_ABORT was invoked on rank 64 in communicator world
MPI_ABORT was invoked on rank 63 in communicator world
MPI_ABORT was invoked on rank 62 in communicator world
MPI_ABORT was invoked on rank 61 in communicator world
MPI_ABORT was invoked on rank 60 in communicator world
MPI_ABORT was invoked on rank 59 in communicator world
MPI_ABORT was invoked on rank 58 in communicator world
with errorcode 1.
MPI_ABORT was invoked on rank 56 in communicator world
MPI_ABORT was invoked on rank 55 in communicator world
MPI_ABORT was invoked on rank 54 in communicator world
MPI_ABORT was invoked on rank 53 in communicator world
MPI_ABORT was invoked on rank 52 in communicator world
MPI_ABORT was invoked on rank 51 in communicator world
MPI_ABORT was invoked on rank 50 in communicator world
MPI_ABORT was invoked on rank 49 in communicator world
MPI_ABORT was invoked on rank 48 in communicator world
MPI_ABORT was invoked on rank 47 in communicator world
MPI_ABORT was invoked on rank 46 in communicator world
with errorcode 1.
MPI_ABORT was invoked on rank 44 in communicator world
with errorcode 1.
MPI_ABORT was invoked on rank 42 in communicator world

with errorcode 1.
MPI_ABORT was invoked on rank 39 in communicator world
MPI_ABORT was invoked on rank 38 in communicator world
MPI_ABORT was invoked on rank 37 in communicator world
MPI_ABORT was invoked on rank 36 in communicator world
MPI_ABORT was invoked on rank 35 in communicator world
MPI_ABORT was invoked on rank 34 in communicator world
with errorcode 1.
MPI_ABORT was invoked on rank 31 in communicator world
MPI_ABORT was invoked on rank 30 in communicator world
MPI_ABORT was invoked on rank 29 in communicator world
MPI_ABORT was invoked on rank 28 in communicator world
MPI_ABORT was invoked on rank 27 in communicator world
MPI_ABORT was invoked on rank 26 in communicator world
with errorcode 1.
MPI_ABORT was invoked on rank 24 in communicator world
MPI_ABORT was invoked on rank 23 in communicator world
MPI_ABORT was invoked on rank 22 in communicator world
MPI_ABORT was invoked on rank 21 in communicator world
MPI_ABORT was invoked on rank 20 in communicator world
MPI_ABORT was invoked on rank 19 in communicator world
MPI_ABORT was invoked on rank 18 in communicator world
with errorcode 1.
MPI_ABORT was invoked on rank 16 in communicator world
MPI_ABORT was invoked on rank 15 in communicator world
MPI_ABORT was invoked on rank 14 in communicator world
MPI_ABORT was invoked on rank 13 in communicator world
MPI_ABORT was invoked on rank 12 in communicator world
MPI_ABORT was invoked on rank 11 in communicator world
MPI_ABORT was invoked on rank 10 in communicator world
MPI_ABORT was invoked on rank 9 in communicator world
MPI_ABORT was invoked on rank 8 in communicator world
MPI_ABORT was invoked on rank 7 in communicator world
MPI_ABORT was invoked on rank 6 in communicator world
MPI_ABORT was invoked on rank 5 in communicator world
MPI_ABORT was invoked on rank 4 in communicator world
MPI_ABORT was invoked on rank 3 in communicator world
MPI_ABORT was invoked on rank 2 in communicator world
MPI_ABORT was invoked on rank 1 in communicator world
MPI_ABORT was invoked on rank 0 in communicator world
--------------------------------------------------------------------------
with errorcode 1.
with errorcode 1.
with errorcode 1.
with errorcode 1.
with errorcode 1.
with errorcode 1.



with errorcode 1.

with errorcode 1.
with errorcode 1.
with errorcode 1.
with errorcode 1.

with errorcode 1.

with errorcode 1.
with errorcode 1.

with errorcode 1.
with errorcode 1.
with errorcode 1.
with errorcode 1.
with errorcode 1.
with errorcode 1.
with errorcode 1.
with errorcode 1.
with errorcode 1.

with errorcode 1.
with errorcode 1.
with errorcode 1.
with errorcode 1.
with errorcode 1.
with errorcode 1.
with errorcode 1.
with errorcode 1.
with errorcode 1.
with errorcode 1.
with errorcode 1.

with errorcode 1.

with errorcode 1.
NOTE: invoking MPI_ABORT causes Open MPI to kill all MPI processes.

with errorcode 1.
with errorcode 1.
with errorcode 1.
with errorcode 1.
with errorcode 1.
with errorcode 1.
--------------------------------------------------------------------------

with errorcode 1.
with errorcode 1.
with errorcode 1.
with errorcode 1.
with errorcode 1.
with errorcode 1.

with errorcode 1.
with errorcode 1.
with errorcode 1.
with errorcode 1.
with errorcode 1.
with errorcode 1.
with errorcode 1.

with errorcode 1.
with errorcode 1.
with errorcode 1.
with errorcode 1.
with errorcode 1.
with errorcode 1.
with errorcode 1.
with errorcode 1.
with errorcode 1.
with errorcode 1.
with errorcode 1.
with errorcode 1.
with errorcode 1.
with errorcode 1.
with errorcode 1.
with errorcode 1.
with errorcode 1.
--------------------------------------------------------------------------






NOTE: invoking MPI_ABORT causes Open MPI to kill all MPI processes.
NOTE: invoking MPI_ABORT causes Open MPI to kill all MPI processes.
NOTE: invoking MPI_ABORT causes Open MPI to kill all MPI processes.

NOTE: invoking MPI_ABORT causes Open MPI to kill all MPI processes.




NOTE: invoking MPI_ABORT causes Open MPI to kill all MPI processes.

NOTE: invoking MPI_ABORT causes Open MPI to kill all MPI processes.


NOTE: invoking MPI_ABORT causes Open MPI to kill all MPI processes.









NOTE: invoking MPI_ABORT causes Open MPI to kill all MPI processes.











NOTE: invoking MPI_ABORT causes Open MPI to kill all MPI processes.

NOTE: invoking MPI_ABORT causes Open MPI to kill all MPI processes.

You may or may not see output from other processes, depending on
NOTE: invoking MPI_ABORT causes Open MPI to kill all MPI processes.






MPI_ABORT was invoked on rank 33 in communicator world
NOTE: invoking MPI_ABORT causes Open MPI to kill all MPI processes.






NOTE: invoking MPI_ABORT causes Open MPI to kill all MPI processes.







NOTE: invoking MPI_ABORT causes Open MPI to kill all MPI processes.

















--------------------------------------------------------------------------
NOTE: invoking MPI_ABORT causes Open MPI to kill all MPI processes.
NOTE: invoking MPI_ABORT causes Open MPI to kill all MPI processes.
NOTE: invoking MPI_ABORT causes Open MPI to kill all MPI processes.
NOTE: invoking MPI_ABORT causes Open MPI to kill all MPI processes.
NOTE: invoking MPI_ABORT causes Open MPI to kill all MPI processes.
NOTE: invoking MPI_ABORT causes Open MPI to kill all MPI processes.
You may or may not see output from other processes, depending on
You may or may not see output from other processes, depending on
You may or may not see output from other processes, depending on
NOTE: invoking MPI_ABORT causes Open MPI to kill all MPI processes.
You may or may not see output from other processes, depending on
NOTE: invoking MPI_ABORT causes Open MPI to kill all MPI processes.
NOTE: invoking MPI_ABORT causes Open MPI to kill all MPI processes.
NOTE: invoking MPI_ABORT causes Open MPI to kill all MPI processes.
NOTE: invoking MPI_ABORT causes Open MPI to kill all MPI processes.
You may or may not see output from other processes, depending on
NOTE: invoking MPI_ABORT causes Open MPI to kill all MPI processes.
You may or may not see output from other processes, depending on
NOTE: invoking MPI_ABORT causes Open MPI to kill all MPI processes.
NOTE: invoking MPI_ABORT causes Open MPI to kill all MPI processes.
You may or may not see output from other processes, depending on
NOTE: invoking MPI_ABORT causes Open MPI to kill all MPI processes.
NOTE: invoking MPI_ABORT causes Open MPI to kill all MPI processes.
NOTE: invoking MPI_ABORT causes Open MPI to kill all MPI processes.
NOTE: invoking MPI_ABORT causes Open MPI to kill all MPI processes.
NOTE: invoking MPI_ABORT causes Open MPI to kill all MPI processes.
NOTE: invoking MPI_ABORT causes Open MPI to kill all MPI processes.
NOTE: invoking MPI_ABORT causes Open MPI to kill all MPI processes.
NOTE: invoking MPI_ABORT causes Open MPI to kill all MPI processes.
NOTE: invoking MPI_ABORT causes Open MPI to kill all MPI processes.
You may or may not see output from other processes, depending on
NOTE: invoking MPI_ABORT causes Open MPI to kill all MPI processes.
NOTE: invoking MPI_ABORT causes Open MPI to kill all MPI processes.
NOTE: invoking MPI_ABORT causes Open MPI to kill all MPI processes.
NOTE: invoking MPI_ABORT causes Open MPI to kill all MPI processes.
NOTE: invoking MPI_ABORT causes Open MPI to kill all MPI processes.
NOTE: invoking MPI_ABORT causes Open MPI to kill all MPI processes.
NOTE: invoking MPI_ABORT causes Open MPI to kill all MPI processes.
NOTE: invoking MPI_ABORT causes Open MPI to kill all MPI processes.
NOTE: invoking MPI_ABORT causes Open MPI to kill all MPI processes.
NOTE: invoking MPI_ABORT causes Open MPI to kill all MPI processes.
NOTE: invoking MPI_ABORT causes Open MPI to kill all MPI processes.
You may or may not see output from other processes, depending on
NOTE: invoking MPI_ABORT causes Open MPI to kill all MPI processes.
You may or may not see output from other processes, depending on
NOTE: invoking MPI_ABORT causes Open MPI to kill all MPI processes.
exactly when Open MPI kills them.
You may or may not see output from other processes, depending on
NOTE: invoking MPI_ABORT causes Open MPI to kill all MPI processes.
NOTE: invoking MPI_ABORT causes Open MPI to kill all MPI processes.
NOTE: invoking MPI_ABORT causes Open MPI to kill all MPI processes.
NOTE: invoking MPI_ABORT causes Open MPI to kill all MPI processes.
NOTE: invoking MPI_ABORT causes Open MPI to kill all MPI processes.
NOTE: invoking MPI_ABORT causes Open MPI to kill all MPI processes.
with errorcode 1.
You may or may not see output from other processes, depending on
NOTE: invoking MPI_ABORT causes Open MPI to kill all MPI processes.
NOTE: invoking MPI_ABORT causes Open MPI to kill all MPI processes.
NOTE: invoking MPI_ABORT causes Open MPI to kill all MPI processes.
NOTE: invoking MPI_ABORT causes Open MPI to kill all MPI processes.
NOTE: invoking MPI_ABORT causes Open MPI to kill all MPI processes.
NOTE: invoking MPI_ABORT causes Open MPI to kill all MPI processes.
You may or may not see output from other processes, depending on
NOTE: invoking MPI_ABORT causes Open MPI to kill all MPI processes.
NOTE: invoking MPI_ABORT causes Open MPI to kill all MPI processes.
NOTE: invoking MPI_ABORT causes Open MPI to kill all MPI processes.
NOTE: invoking MPI_ABORT causes Open MPI to kill all MPI processes.
NOTE: invoking MPI_ABORT causes Open MPI to kill all MPI processes.
NOTE: invoking MPI_ABORT causes Open MPI to kill all MPI processes.
NOTE: invoking MPI_ABORT causes Open MPI to kill all MPI processes.
You may or may not see output from other processes, depending on
NOTE: invoking MPI_ABORT causes Open MPI to kill all MPI processes.
NOTE: invoking MPI_ABORT causes Open MPI to kill all MPI processes.
NOTE: invoking MPI_ABORT causes Open MPI to kill all MPI processes.
NOTE: invoking MPI_ABORT causes Open MPI to kill all MPI processes.
NOTE: invoking MPI_ABORT causes Open MPI to kill all MPI processes.
NOTE: invoking MPI_ABORT causes Open MPI to kill all MPI processes.
NOTE: invoking MPI_ABORT causes Open MPI to kill all MPI processes.
NOTE: invoking MPI_ABORT causes Open MPI to kill all MPI processes.
NOTE: invoking MPI_ABORT causes Open MPI to kill all MPI processes.
NOTE: invoking MPI_ABORT causes Open MPI to kill all MPI processes.
NOTE: invoking MPI_ABORT causes Open MPI to kill all MPI processes.
NOTE: invoking MPI_ABORT causes Open MPI to kill all MPI processes.
NOTE: invoking MPI_ABORT causes Open MPI to kill all MPI processes.
NOTE: invoking MPI_ABORT causes Open MPI to kill all MPI processes.
NOTE: invoking MPI_ABORT causes Open MPI to kill all MPI processes.
NOTE: invoking MPI_ABORT causes Open MPI to kill all MPI processes.
NOTE: invoking MPI_ABORT causes Open MPI to kill all MPI processes.
--------------------------------------------------------------------------
You may or may not see output from other processes, depending on
You may or may not see output from other processes, depending on
You may or may not see output from other processes, depending on
You may or may not see output from other processes, depending on
You may or may not see output from other processes, depending on
You may or may not see output from other processes, depending on
exactly when Open MPI kills them.
exactly when Open MPI kills them.
exactly when Open MPI kills them.
You may or may not see output from other processes, depending on
exactly when Open MPI kills them.
You may or may not see output from other processes, depending on
You may or may not see output from other processes, depending on
You may or may not see output from other processes, depending on
You may or may not see output from other processes, depending on
exactly when Open MPI kills them.
You may or may not see output from other processes, depending on
exactly when Open MPI kills them.
You may or may not see output from other processes, depending on
You may or may not see output from other processes, depending on
exactly when Open MPI kills them.
You may or may not see output from other processes, depending on
You may or may not see output from other processes, depending on
You may or may not see output from other processes, depending on
You may or may not see output from other processes, depending on
You may or may not see output from other processes, depending on
You may or may not see output from other processes, depending on
You may or may not see output from other processes, depending on
You may or may not see output from other processes, depending on
You may or may not see output from other processes, depending on
exactly when Open MPI kills them.
You may or may not see output from other processes, depending on
You may or may not see output from other processes, depending on
You may or may not see output from other processes, depending on
You may or may not see output from other processes, depending on
You may or may not see output from other processes, depending on
You may or may not see output from other processes, depending on
You may or may not see output from other processes, depending on
You may or may not see output from other processes, depending on
You may or may not see output from other processes, depending on
You may or may not see output from other processes, depending on
You may or may not see output from other processes, depending on
exactly when Open MPI kills them.
You may or may not see output from other processes, depending on
exactly when Open MPI kills them.
You may or may not see output from other processes, depending on
--------------------------------------------------------------------------
exactly when Open MPI kills them.
You may or may not see output from other processes, depending on
You may or may not see output from other processes, depending on
You may or may not see output from other processes, depending on
You may or may not see output from other processes, depending on
You may or may not see output from other processes, depending on
You may or may not see output from other processes, depending on

exactly when Open MPI kills them.
You may or may not see output from other processes, depending on
You may or may not see output from other processes, depending on
You may or may not see output from other processes, depending on
You may or may not see output from other processes, depending on
You may or may not see output from other processes, depending on
You may or may not see output from other processes, depending on
exactly when Open MPI kills them.
You may or may not see output from other processes, depending on
You may or may not see output from other processes, depending on
You may or may not see output from other processes, depending on
You may or may not see output from other processes, depending on
You may or may not see output from other processes, depending on
You may or may not see output from other processes, depending on
You may or may not see output from other processes, depending on
exactly when Open MPI kills them.
You may or may not see output from other processes, depending on
You may or may not see output from other processes, depending on
You may or may not see output from other processes, depending on
You may or may not see output from other processes, depending on
You may or may not see output from other processes, depending on
You may or may not see output from other processes, depending on
You may or may not see output from other processes, depending on
You may or may not see output from other processes, depending on
You may or may not see output from other processes, depending on
You may or may not see output from other processes, depending on
You may or may not see output from other processes, depending on
You may or may not see output from other processes, depending on
You may or may not see output from other processes, depending on
You may or may not see output from other processes, depending on
You may or may not see output from other processes, depending on
You may or may not see output from other processes, depending on
You may or may not see output from other processes, depending on
--------------------------------------------------------------------------
exactly when Open MPI kills them.
exactly when Open MPI kills them.
exactly when Open MPI kills them.
exactly when Open MPI kills them.
exactly when Open MPI kills them.
exactly when Open MPI kills them.
--------------------------------------------------------------------------
--------------------------------------------------------------------------
--------------------------------------------------------------------------
exactly when Open MPI kills them.
--------------------------------------------------------------------------
exactly when Open MPI kills them.
exactly when Open MPI kills them.
exactly when Open MPI kills them.
exactly when Open MPI kills them.
--------------------------------------------------------------------------
exactly when Open MPI kills them.
--------------------------------------------------------------------------
exactly when Open MPI kills them.
exactly when Open MPI kills them.
--------------------------------------------------------------------------
exactly when Open MPI kills them.
exactly when Open MPI kills them.
exactly when Open MPI kills them.
exactly when Open MPI kills them.
exactly when Open MPI kills them.
exactly when Open MPI kills them.
exactly when Open MPI kills them.
exactly when Open MPI kills them.
exactly when Open MPI kills them.
--------------------------------------------------------------------------
exactly when Open MPI kills them.
exactly when Open MPI kills them.
exactly when Open MPI kills them.
exactly when Open MPI kills them.
exactly when Open MPI kills them.
exactly when Open MPI kills them.
exactly when Open MPI kills them.
exactly when Open MPI kills them.
exactly when Open MPI kills them.
exactly when Open MPI kills them.
exactly when Open MPI kills them.
--------------------------------------------------------------------------
exactly when Open MPI kills them.
--------------------------------------------------------------------------
exactly when Open MPI kills them.
--------------------------------------------------------------------------
exactly when Open MPI kills them.
exactly when Open MPI kills them.
exactly when Open MPI kills them.
exactly when Open MPI kills them.
exactly when Open MPI kills them.
exactly when Open MPI kills them.
NOTE: invoking MPI_ABORT causes Open MPI to kill all MPI processes.
--------------------------------------------------------------------------
exactly when Open MPI kills them.
exactly when Open MPI kills them.
exactly when Open MPI kills them.
exactly when Open MPI kills them.
exactly when Open MPI kills them.
exactly when Open MPI kills them.
--------------------------------------------------------------------------
exactly when Open MPI kills them.
exactly when Open MPI kills them.
exactly when Open MPI kills them.
exactly when Open MPI kills them.
exactly when Open MPI kills them.
exactly when Open MPI kills them.
exactly when Open MPI kills them.
--------------------------------------------------------------------------
exactly when Open MPI kills them.
exactly when Open MPI kills them.
exactly when Open MPI kills them.
exactly when Open MPI kills them.
exactly when Open MPI kills them.
exactly when Open MPI kills them.
exactly when Open MPI kills them.
exactly when Open MPI kills them.
exactly when Open MPI kills them.
exactly when Open MPI kills them.
exactly when Open MPI kills them.
exactly when Open MPI kills them.
exactly when Open MPI kills them.
exactly when Open MPI kills them.
exactly when Open MPI kills them.
exactly when Open MPI kills them.
exactly when Open MPI kills them.
--------------------------------------------------------------------------
--------------------------------------------------------------------------
--------------------------------------------------------------------------
--------------------------------------------------------------------------
--------------------------------------------------------------------------
--------------------------------------------------------------------------
--------------------------------------------------------------------------
--------------------------------------------------------------------------
--------------------------------------------------------------------------
--------------------------------------------------------------------------
--------------------------------------------------------------------------
--------------------------------------------------------------------------
--------------------------------------------------------------------------
--------------------------------------------------------------------------
--------------------------------------------------------------------------
--------------------------------------------------------------------------
--------------------------------------------------------------------------
--------------------------------------------------------------------------
--------------------------------------------------------------------------
--------------------------------------------------------------------------
--------------------------------------------------------------------------
--------------------------------------------------------------------------
--------------------------------------------------------------------------
--------------------------------------------------------------------------
--------------------------------------------------------------------------
--------------------------------------------------------------------------
--------------------------------------------------------------------------
--------------------------------------------------------------------------
--------------------------------------------------------------------------
--------------------------------------------------------------------------
--------------------------------------------------------------------------
--------------------------------------------------------------------------
--------------------------------------------------------------------------
--------------------------------------------------------------------------
--------------------------------------------------------------------------
--------------------------------------------------------------------------
--------------------------------------------------------------------------
--------------------------------------------------------------------------
--------------------------------------------------------------------------
--------------------------------------------------------------------------
--------------------------------------------------------------------------
--------------------------------------------------------------------------
--------------------------------------------------------------------------
You may or may not see output from other processes, depending on
--------------------------------------------------------------------------
--------------------------------------------------------------------------
--------------------------------------------------------------------------
--------------------------------------------------------------------------
--------------------------------------------------------------------------
--------------------------------------------------------------------------
--------------------------------------------------------------------------
--------------------------------------------------------------------------
--------------------------------------------------------------------------
--------------------------------------------------------------------------
--------------------------------------------------------------------------
--------------------------------------------------------------------------
--------------------------------------------------------------------------
--------------------------------------------------------------------------
--------------------------------------------------------------------------
--------------------------------------------------------------------------
--------------------------------------------------------------------------
--------------------------------------------------------------------------
--------------------------------------------------------------------------
--------------------------------------------------------------------------
--------------------------------------------------------------------------
--------------------------------------------------------------------------
--------------------------------------------------------------------------
--------------------------------------------------------------------------
--------------------------------------------------------------------------
--------------------------------------------------------------------------
--------------------------------------------------------------------------
--------------------------------------------------------------------------
--------------------------------------------------------------------------
--------------------------------------------------------------------------
--------------------------------------------------------------------------
exactly when Open MPI kills them.
--------------------------------------------------------------------------
--------------------------------------------------------------------------
--------------------------------------------------------------------------
--------------------------------------------------------------------------
--------------------------------------------------------------------------
--------------------------------------------------------------------------
--------------------------------------------------------------------------
--------------------------------------------------------------------------
--------------------------------------------------------------------------
--------------------------------------------------------------------------
--------------------------------------------------------------------------
--------------------------------------------------------------------------
--------------------------------------------------------------------------
--------------------------------------------------------------------------
--------------------------------------------------------------------------
--------------------------------------------------------------------------
--------------------------------------------------------------------------
--------------------------------------------------------------------------
--------------------------------------------------------------------------
--------------------------------------------------------------------------
--------------------------------------------------------------------------
--------------------------------------------------------------------------
--------------------------------------------------------------------------
--------------------------------------------------------------------------
--------------------------------------------------------------------------
--------------------------------------------------------------------------
--------------------------------------------------------------------------
--------------------------------------------------------------------------
--------------------------------------------------------------------------
--------------------------------------------------------------------------
--------------------------------------------------------------------------
--------------------------------------------------------------------------
--------------------------------------------------------------------------
--------------------------------------------------------------------------
--------------------------------------------------------------------------
--------------------------------------------------------------------------
--------------------------------------------------------------------------
--------------------------------------------------------------------------
--------------------------------------------------------------------------
--------------------------------------------------------------------------
--------------------------------------------------------------------------
--------------------------------------------------------------------------
--------------------------------------------------------------------------
--------------------------------------------------------------------------
--------------------------------------------------------------------------
--------------------------------------------------------------------------
--------------------------------------------------------------------------
--------------------------------------------------------------------------
--------------------------------------------------------------------------
--------------------------------------------------------------------------
--------------------------------------------------------------------------
--------------------------------------------------------------------------
--------------------------------------------------------------------------
--------------------------------------------------------------------------
--------------------------------------------------------------------------
--------------------------------------------------------------------------
--------------------------------------------------------------------------
--------------------------------------------------------------------------
--------------------------------------------------------------------------
--------------------------------------------------------------------------
--------------------------------------------------------------------------
--------------------------------------------------------------------------
--------------------------------------------------------------------------
--------------------------------------------------------------------------
--------------------------------------------------------------------------
--------------------------------------------------------------------------
--------------------------------------------------------------------------
--------------------------------------------------------------------------
--------------------------------------------------------------------------
--------------------------------------------------------------------------
--------------------------------------------------------------------------
--------------------------------------------------------------------------
--------------------------------------------------------------------------
--------------------------------------------------------------------------
--------------------------------------------------------------------------
--------------------------------------------------------------------------
--------------------------------------------------------------------------
--------------------------------------------------------------------------
--------------------------------------------------------------------------
MPI_ABORT was invoked on rank 262 in communicator world
--------------------------------------------------------------------------
--------------------------------------------------------------------------
--------------------------------------------------------------------------
--------------------------------------------------------------------------
--------------------------------------------------------------------------
--------------------------------------------------------------------------
--------------------------------------------------------------------------
--------------------------------------------------------------------------
--------------------------------------------------------------------------
MPI_ABORT was invoked on rank 3563 in communicator world
--------------------------------------------------------------------------
--------------------------------------------------------------------------
--------------------------------------------------------------------------
--------------------------------------------------------------------------
--------------------------------------------------------------------------
--------------------------------------------------------------------------
--------------------------------------------------------------------------
--------------------------------------------------------------------------
--------------------------------------------------------------------------
--------------------------------------------------------------------------
--------------------------------------------------------------------------
--------------------------------------------------------------------------
--------------------------------------------------------------------------
--------------------------------------------------------------------------
--------------------------------------------------------------------------
--------------------------------------------------------------------------
--------------------------------------------------------------------------
--------------------------------------------------------------------------
--------------------------------------------------------------------------
--------------------------------------------------------------------------
--------------------------------------------------------------------------
--------------------------------------------------------------------------
--------------------------------------------------------------------------
--------------------------------------------------------------------------
--------------------------------------------------------------------------
--------------------------------------------------------------------------
--------------------------------------------------------------------------
MPI_ABORT was invoked on rank 5083 in communicator world
--------------------------------------------------------------------------
--------------------------------------------------------------------------
--------------------------------------------------------------------------
--------------------------------------------------------------------------
MPI_ABORT was invoked on rank 1141 in communicator world
MPI_ABORT was invoked on rank 4479 in communicator world
--------------------------------------------------------------------------
--------------------------------------------------------------------------
--------------------------------------------------------------------------
--------------------------------------------------------------------------
--------------------------------------------------------------------------
--------------------------------------------------------------------------
--------------------------------------------------------------------------
--------------------------------------------------------------------------
--------------------------------------------------------------------------
--------------------------------------------------------------------------
--------------------------------------------------------------------------
--------------------------------------------------------------------------
--------------------------------------------------------------------------
--------------------------------------------------------------------------
--------------------------------------------------------------------------
MPI_ABORT was invoked on rank 3338 in communicator world
--------------------------------------------------------------------------
--------------------------------------------------------------------------
--------------------------------------------------------------------------
--------------------------------------------------------------------------
--------------------------------------------------------------------------
--------------------------------------------------------------------------
--------------------------------------------------------------------------
--------------------------------------------------------------------------
--------------------------------------------------------------------------
--------------------------------------------------------------------------
--------------------------------------------------------------------------
--------------------------------------------------------------------------
MPI_ABORT was invoked on rank 1917 in communicator world
--------------------------------------------------------------------------
--------------------------------------------------------------------------
--------------------------------------------------------------------------
--------------------------------------------------------------------------
--------------------------------------------------------------------------
--------------------------------------------------------------------------
--------------------------------------------------------------------------
--------------------------------------------------------------------------
--------------------------------------------------------------------------
--------------------------------------------------------------------------
--------------------------------------------------------------------------
--------------------------------------------------------------------------
--------------------------------------------------------------------------
MPI_ABORT was invoked on rank 248 in communicator world
--------------------------------------------------------------------------
--------------------------------------------------------------------------
--------------------------------------------------------------------------
--------------------------------------------------------------------------
--------------------------------------------------------------------------
--------------------------------------------------------------------------
--------------------------------------------------------------------------
MPI_ABORT was invoked on rank 2017 in communicator world
--------------------------------------------------------------------------
--------------------------------------------------------------------------
--------------------------------------------------------------------------
--------------------------------------------------------------------------
--------------------------------------------------------------------------
--------------------------------------------------------------------------
--------------------------------------------------------------------------
--------------------------------------------------------------------------
--------------------------------------------------------------------------
--------------------------------------------------------------------------
--------------------------------------------------------------------------
--------------------------------------------------------------------------
--------------------------------------------------------------------------
--------------------------------------------------------------------------
--------------------------------------------------------------------------
--------------------------------------------------------------------------
--------------------------------------------------------------------------
--------------------------------------------------------------------------
--------------------------------------------------------------------------
MPI_ABORT was invoked on rank 1787 in communicator world
--------------------------------------------------------------------------
MPI_ABORT was invoked on rank 3424 in communicator world
--------------------------------------------------------------------------
--------------------------------------------------------------------------
--------------------------------------------------------------------------
--------------------------------------------------------------------------
--------------------------------------------------------------------------
--------------------------------------------------------------------------
--------------------------------------------------------------------------
--------------------------------------------------------------------------
--------------------------------------------------------------------------
--------------------------------------------------------------------------
--------------------------------------------------------------------------
--------------------------------------------------------------------------
MPI_ABORT was invoked on rank 2421 in communicator world
--------------------------------------------------------------------------
--------------------------------------------------------------------------
--------------------------------------------------------------------------
--------------------------------------------------------------------------
--------------------------------------------------------------------------
--------------------------------------------------------------------------
--------------------------------------------------------------------------
--------------------------------------------------------------------------
--------------------------------------------------------------------------
--------------------------------------------------------------------------
--------------------------------------------------------------------------
--------------------------------------------------------------------------
--------------------------------------------------------------------------
MPI_ABORT was invoked on rank 4216 in communicator world
--------------------------------------------------------------------------
--------------------------------------------------------------------------
MPI_ABORT was invoked on rank 4898 in communicator world
--------------------------------------------------------------------------
--------------------------------------------------------------------------
MPI_ABORT was invoked on rank 2541 in communicator world
--------------------------------------------------------------------------
--------------------------------------------------------------------------
--------------------------------------------------------------------------
--------------------------------------------------------------------------
--------------------------------------------------------------------------
--------------------------------------------------------------------------
--------------------------------------------------------------------------
--------------------------------------------------------------------------
--------------------------------------------------------------------------
--------------------------------------------------------------------------
--------------------------------------------------------------------------
--------------------------------------------------------------------------
MPI_ABORT was invoked on rank 4291 in communicator world
MPI_ABORT was invoked on rank 3421 in communicator world
MPI_ABORT was invoked on rank 753 in communicator world
--------------------------------------------------------------------------
MPI_ABORT was invoked on rank 1288 in communicator world
--------------------------------------------------------------------------
--------------------------------------------------------------------------
--------------------------------------------------------------------------
--------------------------------------------------------------------------
--------------------------------------------------------------------------
--------------------------------------------------------------------------
--------------------------------------------------------------------------
--------------------------------------------------------------------------
--------------------------------------------------------------------------
MPI_ABORT was invoked on rank 2420 in communicator world
--------------------------------------------------------------------------
--------------------------------------------------------------------------
--------------------------------------------------------------------------
MPI_ABORT was invoked on rank 1132 in communicator world
--------------------------------------------------------------------------
--------------------------------------------------------------------------
--------------------------------------------------------------------------
MPI_ABORT was invoked on rank 4980 in communicator world
--------------------------------------------------------------------------
--------------------------------------------------------------------------
--------------------------------------------------------------------------
--------------------------------------------------------------------------
--------------------------------------------------------------------------
--------------------------------------------------------------------------
--------------------------------------------------------------------------
--------------------------------------------------------------------------
--------------------------------------------------------------------------
--------------------------------------------------------------------------
--------------------------------------------------------------------------
MPI_ABORT was invoked on rank 2540 in communicator world
--------------------------------------------------------------------------
--------------------------------------------------------------------------
MPI_ABORT was invoked on rank 638 in communicator world
MPI_ABORT was invoked on rank 596 in communicator world
--------------------------------------------------------------------------
MPI_ABORT was invoked on rank 5346 in communicator world
--------------------------------------------------------------------------
--------------------------------------------------------------------------
--------------------------------------------------------------------------
MPI_ABORT was invoked on rank 2627 in communicator world
--------------------------------------------------------------------------
--------------------------------------------------------------------------
--------------------------------------------------------------------------
--------------------------------------------------------------------------
--------------------------------------------------------------------------
--------------------------------------------------------------------------
[...]
with errorcode 1.
with errorcode 1.
with errorcode 1.
MPI_ABORT was invoked on rank 5579 in communicator world
with errorcode 1.
with errorcode 1.
with errorcode 1.

with errorcode 1.
with errorcode 1.
with errorcode 1.
with errorcode 1.

with errorcode 1.

with errorcode 1.
with errorcode 1.
with errorcode 1.
with errorcode 1.

with errorcode 1.

with errorcode 1.
with errorcode 1.
with errorcode 1.
with errorcode 1.

with errorcode 1.
with errorcode 1.
with errorcode 1.

with errorcode 1.
with errorcode 1.
with errorcode 1.
with errorcode 1.
with errorcode 1.
MPI_ABORT was invoked on rank 2916 in communicator world
with errorcode 1.
with errorcode 1.
with errorcode 1.
with errorcode 1.
with errorcode 1.
with errorcode 1.
with errorcode 1.
with errorcode 1.
with errorcode 1.
with errorcode 1.
with errorcode 1.
with errorcode 1.

with errorcode 1.
with errorcode 1.
with errorcode 1.
with errorcode 1.
with errorcode 1.
with errorcode 1.
with errorcode 1.
with errorcode 1.
MPI_ABORT was invoked on rank 3020 in communicator world
with errorcode 1.
MPI_ABORT was invoked on rank 5131 in communicator world
with errorcode 1.
with errorcode 1.
with errorcode 1.
with errorcode 1.
with errorcode 1.
with errorcode 1.
with errorcode 1.

with errorcode 1.
with errorcode 1.

with errorcode 1.
with errorcode 1.
with errorcode 1.
with errorcode 1.
with errorcode 1.
with errorcode 1.
with errorcode 1.
with errorcode 1.
with errorcode 1.
with errorcode 1.
with errorcode 1.
with errorcode 1.

with errorcode 1.

with errorcode 1.
NOTE: invoking MPI_ABORT causes Open MPI to kill all MPI processes.
with errorcode 1.
with errorcode 1.
with errorcode 1.
with errorcode 1.
with errorcode 1.
with errorcode 1.
MPI_ABORT was invoked on rank 271 in communicator world

with errorcode 1.

with errorcode 1.
with errorcode 1.
with errorcode 1.
with errorcode 1.
NOTE: invoking MPI_ABORT causes Open MPI to kill all MPI processes.
with errorcode 1.
with errorcode 1.
with errorcode 1.
with errorcode 1.
with errorcode 1.

with errorcode 1.

with errorcode 1.
with errorcode 1.
with errorcode 1.
with errorcode 1.
with errorcode 1.
with errorcode 1.
with errorcode 1.
with errorcode 1.
with errorcode 1.
with errorcode 1.
with errorcode 1.
with errorcode 1.
MPI_ABORT was invoked on rank 88 in communicator world
with errorcode 1.
with errorcode 1.
with errorcode 1.
with errorcode 1.
with errorcode 1.
with errorcode 1.


with errorcode 1.
with errorcode 1.
with errorcode 1.
with errorcode 1.
with errorcode 1.
with errorcode 1.
with errorcode 1.
with errorcode 1.


with errorcode 1.
with errorcode 1.
with errorcode 1.
with errorcode 1.
with errorcode 1.
with errorcode 1.
with errorcode 1.


with errorcode 1.
with errorcode 1.
with errorcode 1.
with errorcode 1.
with errorcode 1.
with errorcode 1.
with errorcode 1.


MPI_ABORT was invoked on rank 391 in communicator world
MPI_ABORT was invoked on rank 2914 in communicator world
with errorcode 1.
with errorcode 1.
with errorcode 1.
with errorcode 1.
with errorcode 1.
with errorcode 1.
with errorcode 1.
with errorcode 1.
with errorcode 1.
with errorcode 1.
with errorcode 1.
with errorcode 1.

with errorcode 1.
with errorcode 1.
with errorcode 1.
with errorcode 1.
with errorcode 1.
with errorcode 1.

with errorcode 1.
with errorcode 1.
with errorcode 1.
with errorcode 1.


with errorcode 1.
with errorcode 1.
with errorcode 1.
with errorcode 1.
with errorcode 1.
with errorcode 1.

with errorcode 1.
with errorcode 1.
with errorcode 1.
with errorcode 1.
with errorcode 1.
with errorcode 1.
with errorcode 1.
with errorcode 1.
with errorcode 1.
MPI_ABORT was invoked on rank 2149 in communicator world
NOTE: invoking MPI_ABORT causes Open MPI to kill all MPI processes.
with errorcode 1.
with errorcode 1.
with errorcode 1.
with errorcode 1.

with errorcode 1.
with errorcode 1.
with errorcode 1.
with errorcode 1.
with errorcode 1.
with errorcode 1.
with errorcode 1.
with errorcode 1.
with errorcode 1.
MPI_ABORT was invoked on rank 269 in communicator world
with errorcode 1.
with errorcode 1.
with errorcode 1.
with errorcode 1.
with errorcode 1.
with errorcode 1.
with errorcode 1.
with errorcode 1.
with errorcode 1.
with errorcode 1.
with errorcode 1.
with errorcode 1.
with errorcode 1.
with errorcode 1.
with errorcode 1.
with errorcode 1.

with errorcode 1.
with errorcode 1.
with errorcode 1.
with errorcode 1.
with errorcode 1.
with errorcode 1.
with errorcode 1.
with errorcode 1.
with errorcode 1.
with errorcode 1.
with errorcode 1.

with errorcode 1.
with errorcode 1.
with errorcode 1.
with errorcode 1.
MPI_ABORT was invoked on rank 5575 in communicator world
with errorcode 1.
with errorcode 1.

with errorcode 1.
with errorcode 1.
with errorcode 1.
with errorcode 1.
with errorcode 1.

with errorcode 1.

with errorcode 1.
with errorcode 1.
with errorcode 1.
with errorcode 1.

with errorcode 1.

with errorcode 1.
with errorcode 1.
with errorcode 1.
with errorcode 1.
with errorcode 1.
with errorcode 1.
MPI_ABORT was invoked on rank 4940 in communicator world
with errorcode 1.
with errorcode 1.
with errorcode 1.
MPI_ABORT was invoked on rank 268 in communicator world

with errorcode 1.
with errorcode 1.
with errorcode 1.
with errorcode 1.
with errorcode 1.
with errorcode 1.
with errorcode 1.

with errorcode 1.
with errorcode 1.
with errorcode 1.

with errorcode 1.
with errorcode 1.
with errorcode 1.
with errorcode 1.
with errorcode 1.
with errorcode 1.
with errorcode 1.
with errorcode 1.

with errorcode 1.
with errorcode 1.
with errorcode 1.
with errorcode 1.
with errorcode 1.
with errorcode 1.

with errorcode 1.
with errorcode 1.
with errorcode 1.
with errorcode 1.
with errorcode 1.
with errorcode 1.

with errorcode 1.
with errorcode 1.

with errorcode 1.
with errorcode 1.
with errorcode 1.
with errorcode 1.
with errorcode 1.

with errorcode 1.
with errorcode 1.
with errorcode 1.

with errorcode 1.

with errorcode 1.
with errorcode 1.
with errorcode 1.
with errorcode 1.

with errorcode 1.
with errorcode 1.
MPI_ABORT was invoked on rank 4939 in communicator world
NOTE: invoking MPI_ABORT causes Open MPI to kill all MPI processes.
with errorcode 1.

MPI_ABORT was invoked on rank 267 in communicator world
with errorcode 1.

with errorcode 1.
MPI_ABORT was invoked on rank 2911 in communicator world
with errorcode 1.
with errorcode 1.
with errorcode 1.
with errorcode 1.
with errorcode 1.
with errorcode 1.
with errorcode 1.
with errorcode 1.
with errorcode 1.
with errorcode 1.
with errorcode 1.
with errorcode 1.
with errorcode 1.
with errorcode 1.
with errorcode 1.
with errorcode 1.
with errorcode 1.

with errorcode 1.
with errorcode 1.
with errorcode 1.
with errorcode 1.
with errorcode 1.
with errorcode 1.

with errorcode 1.
with errorcode 1.

with errorcode 1.
with errorcode 1.
with errorcode 1.


with errorcode 1.
with errorcode 1.
with errorcode 1.

with errorcode 1.
with errorcode 1.
MPI_ABORT was invoked on rank 2236 in communicator world
with errorcode 1.
with errorcode 1.
with errorcode 1.
with errorcode 1.
with errorcode 1.
with errorcode 1.
with errorcode 1.
with errorcode 1.
with errorcode 1.
with errorcode 1.
with errorcode 1.
with errorcode 1.
with errorcode 1.
with errorcode 1.
with errorcode 1.

with errorcode 1.
with errorcode 1.
with errorcode 1.
with errorcode 1.
with errorcode 1.
with errorcode 1.
MPI_ABORT was invoked on rank 2910 in communicator world

with errorcode 1.
with errorcode 1.
with errorcode 1.
with errorcode 1.
with errorcode 1.
with errorcode 1.
with errorcode 1.

with errorcode 1.

with errorcode 1.
with errorcode 1.
with errorcode 1.
with errorcode 1.
with errorcode 1.
with errorcode 1.
with errorcode 1.
with errorcode 1.

with errorcode 1.
with errorcode 1.
with errorcode 1.
with errorcode 1.

MPI_ABORT was invoked on rank 4069 in communicator world
with errorcode 1.
with errorcode 1.
with errorcode 1.
with errorcode 1.
with errorcode 1.

with errorcode 1.


with errorcode 1.


with errorcode 1.
with errorcode 1.
with errorcode 1.
with errorcode 1.
with errorcode 1.
with errorcode 1.
with errorcode 1.
with errorcode 1.
with errorcode 1.
with errorcode 1.
with errorcode 1.
with errorcode 1.
with errorcode 1.
with errorcode 1.

with errorcode 1.
with errorcode 1.


with errorcode 1.
with errorcode 1.
with errorcode 1.
with errorcode 1.
with errorcode 1.
with errorcode 1.

with errorcode 1.
with errorcode 1.
with errorcode 1.
with errorcode 1.
with errorcode 1.
with errorcode 1.
with errorcode 1.

with errorcode 1.

with errorcode 1.
with errorcode 1.

with errorcode 1.
with errorcode 1.
with errorcode 1.
with errorcode 1.
with errorcode 1.

with errorcode 1.
with errorcode 1.
with errorcode 1.
with errorcode 1.

with errorcode 1.
with errorcode 1.
with errorcode 1.
with errorcode 1.
with errorcode 1.
with errorcode 1.
NOTE: invoking MPI_ABORT causes Open MPI to kill all MPI processes.
NOTE: invoking MPI_ABORT causes Open MPI to kill all MPI processes.
with errorcode 1.
with errorcode 1.
with errorcode 1.
with errorcode 1.
with errorcode 1.

with errorcode 1.

with errorcode 1.
with errorcode 1.
with errorcode 1.
with errorcode 1.
NOTE: invoking MPI_ABORT causes Open MPI to kill all MPI processes.
with errorcode 1.

with errorcode 1.
with errorcode 1.
with errorcode 1.
with errorcode 1.
MPI_ABORT was invoked on rank 1440 in communicator world
with errorcode 1.
with errorcode 1.
with errorcode 1.
with errorcode 1.
with errorcode 1.
with errorcode 1.
with errorcode 1.
with errorcode 1.
with errorcode 1.
MPI_ABORT was invoked on rank 2908 in communicator world
with errorcode 1.
with errorcode 1.
with errorcode 1.
with errorcode 1.
with errorcode 1.
with errorcode 1.
with errorcode 1.
with errorcode 1.
with errorcode 1.
with errorcode 1.

with errorcode 1.
with errorcode 1.

with errorcode 1.
with errorcode 1.
with errorcode 1.
with errorcode 1.
with errorcode 1.

with errorcode 1.
with errorcode 1.
with errorcode 1.
with errorcode 1.
with errorcode 1.

with errorcode 1.
with errorcode 1.
with errorcode 1.
with errorcode 1.
with errorcode 1.

with errorcode 1.
with errorcode 1.
with errorcode 1.


with errorcode 1.
with errorcode 1.
with errorcode 1.
with errorcode 1.
with errorcode 1.
with errorcode 1.
with errorcode 1.
with errorcode 1.
with errorcode 1.
with errorcode 1.
with errorcode 1.
with errorcode 1.
with errorcode 1.
with errorcode 1.
with errorcode 1.
with errorcode 1.
with errorcode 1.
MPI_ABORT was invoked on rank 4935 in communicator world

with errorcode 1.
with errorcode 1.
with errorcode 1.
with errorcode 1.
with errorcode 1.
with errorcode 1.
MPI_ABORT was invoked on rank 2907 in communicator world
with errorcode 1.
with errorcode 1.
with errorcode 1.
with errorcode 1.

with errorcode 1.
with errorcode 1.
with errorcode 1.

with errorcode 1.
with errorcode 1.
with errorcode 1.
with errorcode 1.
with errorcode 1.
with errorcode 1.
with errorcode 1.
with errorcode 1.


with errorcode 1.
with errorcode 1.
with errorcode 1.
with errorcode 1.
with errorcode 1.


MPI_ABORT was invoked on rank 3982 in communicator world

with errorcode 1.
with errorcode 1.

with errorcode 1.


with errorcode 1.
with errorcode 1.
with errorcode 1.

with errorcode 1.
with errorcode 1.

with errorcode 1.
with errorcode 1.
with errorcode 1.
with errorcode 1.
with errorcode 1.


with errorcode 1.
with errorcode 1.
with errorcode 1.
with errorcode 1.
with errorcode 1.
with errorcode 1.
with errorcode 1.

with errorcode 1.
with errorcode 1.

with errorcode 1.

with errorcode 1.
with errorcode 1.
with errorcode 1.
with errorcode 1.
with errorcode 1.

with errorcode 1.
with errorcode 1.
with errorcode 1.
with errorcode 1.

MPI_ABORT was invoked on rank 5309 in communicator world
with errorcode 1.
with errorcode 1.
with errorcode 1.
with errorcode 1.
with errorcode 1.
with errorcode 1.
with errorcode 1.
with errorcode 1.
with errorcode 1.

with errorcode 1.
with errorcode 1.
with errorcode 1.
with errorcode 1.


with errorcode 1.
with errorcode 1.
with errorcode 1.
with errorcode 1.
with errorcode 1.

You may or may not see output from other processes, depending on
with errorcode 1.
with errorcode 1.

NOTE: invoking MPI_ABORT causes Open MPI to kill all MPI processes.

with errorcode 1.
with errorcode 1.

with errorcode 1.
NOTE: invoking MPI_ABORT causes Open MPI to kill all MPI processes.
with errorcode 1.
with errorcode 1.
with errorcode 1.


with errorcode 1.
with errorcode 1.
with errorcode 1.

with errorcode 1.
with errorcode 1.
with errorcode 1.
with errorcode 1.

with errorcode 1.
NOTE: invoking MPI_ABORT causes Open MPI to kill all MPI processes.
with errorcode 1.
with errorcode 1.

with errorcode 1.
with errorcode 1.
with errorcode 1.
with errorcode 1.
with errorcode 1.
with errorcode 1.
with errorcode 1.
with errorcode 1.
with errorcode 1.
with errorcode 1.
MPI_ABORT was invoked on rank 5308 in communicator world
with errorcode 1.
with errorcode 1.
with errorcode 1.
with errorcode 1.
with errorcode 1.


with errorcode 1.
with errorcode 1.

with errorcode 1.
with errorcode 1.
with errorcode 1.
with errorcode 1.

with errorcode 1.
MPI_ABORT was invoked on rank 3980 in communicator world
with errorcode 1.
with errorcode 1.
MPI_ABORT was invoked on rank 5567 in communicator world
with errorcode 1.
with errorcode 1.

with errorcode 1.

with errorcode 1.
MPI_ABORT was invoked on rank 1254 in communicator world
with errorcode 1.
with errorcode 1.
with errorcode 1.
with errorcode 1.
with errorcode 1.
with errorcode 1.
with errorcode 1.
with errorcode 1.
with errorcode 1.

with errorcode 1.
with errorcode 1.
with errorcode 1.
with errorcode 1.

with errorcode 1.
with errorcode 1.
with errorcode 1.
with errorcode 1.

with errorcode 1.
with errorcode 1.
with errorcode 1.
with errorcode 1.
with errorcode 1.
MPI_ABORT was invoked on rank 2904 in communicator world
with errorcode 1.
with errorcode 1.
NOTE: invoking MPI_ABORT causes Open MPI to kill all MPI processes.
with errorcode 1.
with errorcode 1.
MPI_ABORT was invoked on rank 1341 in communicator world
MPI_ABORT was invoked on rank 639 in communicator world
with errorcode 1.

with errorcode 1.
with errorcode 1.
with errorcode 1.
with errorcode 1.

with errorcode 1.

with errorcode 1.
with errorcode 1.
with errorcode 1.

with errorcode 1.
with errorcode 1.
with errorcode 1.
with errorcode 1.
with errorcode 1.
with errorcode 1.
with errorcode 1.
with errorcode 1.
with errorcode 1.
MPI_ABORT was invoked on rank 5566 in communicator world
with errorcode 1.

with errorcode 1.
with errorcode 1.
with errorcode 1.

with errorcode 1.
NOTE: invoking MPI_ABORT causes Open MPI to kill all MPI processes.
with errorcode 1.
with errorcode 1.

with errorcode 1.
with errorcode 1.
with errorcode 1.
with errorcode 1.

with errorcode 1.

with errorcode 1.
with errorcode 1.
with errorcode 1.
with errorcode 1.
with errorcode 1.
with errorcode 1.
with errorcode 1.
with errorcode 1.
with errorcode 1.
with errorcode 1.
with errorcode 1.




with errorcode 1.
with errorcode 1.

with errorcode 1.
with errorcode 1.
with errorcode 1.
NOTE: invoking MPI_ABORT causes Open MPI to kill all MPI processes.
with errorcode 1.

with errorcode 1.
with errorcode 1.

with errorcode 1.
with errorcode 1.

NOTE: invoking MPI_ABORT causes Open MPI to kill all MPI processes.
with errorcode 1.
with errorcode 1.
with errorcode 1.
with errorcode 1.

with errorcode 1.
with errorcode 1.
with errorcode 1.
with errorcode 1.
with errorcode 1.

with errorcode 1.
MPI_ABORT was invoked on rank 4677 in communicator world
with errorcode 1.
with errorcode 1.


with errorcode 1.
with errorcode 1.
with errorcode 1.
with errorcode 1.
with errorcode 1.

with errorcode 1.
with errorcode 1.
with errorcode 1.
with errorcode 1.
with errorcode 1.
with errorcode 1.
with errorcode 1.
with errorcode 1.

with errorcode 1.
with errorcode 1.
with errorcode 1.

with errorcode 1.
with errorcode 1.
with errorcode 1.
with errorcode 1.
with errorcode 1.
with errorcode 1.
with errorcode 1.
with errorcode 1.
with errorcode 1.
NOTE: invoking MPI_ABORT causes Open MPI to kill all MPI processes.

with errorcode 1.
with errorcode 1.

with errorcode 1.

MPI_ABORT was invoked on rank 1339 in communicator world

with errorcode 1.
with errorcode 1.
with errorcode 1.
with errorcode 1.

with errorcode 1.
with errorcode 1.
with errorcode 1.

with errorcode 1.
with errorcode 1.
with errorcode 1.


MPI_ABORT was invoked on rank 3006 in communicator world
with errorcode 1.
with errorcode 1.

with errorcode 1.
with errorcode 1.
with errorcode 1.
with errorcode 1.
with errorcode 1.
with errorcode 1.

with errorcode 1.
with errorcode 1.

with errorcode 1.
with errorcode 1.
with errorcode 1.
with errorcode 1.
with errorcode 1.


NOTE: invoking MPI_ABORT causes Open MPI to kill all MPI processes.
with errorcode 1.
with errorcode 1.



with errorcode 1.
with errorcode 1.
with errorcode 1.
with errorcode 1.
with errorcode 1.
with errorcode 1.
MPI_ABORT was invoked on rank 4929 in communicator world
with errorcode 1.

with errorcode 1.

with errorcode 1.
with errorcode 1.


with errorcode 1.
with errorcode 1.


with errorcode 1.
with errorcode 1.

with errorcode 1.
with errorcode 1.
with errorcode 1.
with errorcode 1.

with errorcode 1.
with errorcode 1.
with errorcode 1.
NOTE: invoking MPI_ABORT causes Open MPI to kill all MPI processes.
with errorcode 1.


with errorcode 1.

MPI_ABORT was invoked on rank 3005 in communicator world
with errorcode 1.
with errorcode 1.
with errorcode 1.
with errorcode 1.
with errorcode 1.
with errorcode 1.
with errorcode 1.
MPI_ABORT was invoked on rank 5563 in communicator world
with errorcode 1.
NOTE: invoking MPI_ABORT causes Open MPI to kill all MPI processes.

with errorcode 1.



with errorcode 1.

with errorcode 1.


with errorcode 1.
with errorcode 1.
with errorcode 1.
with errorcode 1.
with errorcode 1.
with errorcode 1.
with errorcode 1.
with errorcode 1.
with errorcode 1.
with errorcode 1.
with errorcode 1.
with errorcode 1.
MPI_ABORT was invoked on rank 4928 in communicator world

with errorcode 1.
with errorcode 1.

with errorcode 1.
with errorcode 1.
with errorcode 1.

with errorcode 1.
with errorcode 1.

with errorcode 1.
with errorcode 1.
with errorcode 1.



with errorcode 1.
with errorcode 1.
with errorcode 1.
with errorcode 1.
with errorcode 1.
with errorcode 1.

with errorcode 1.
with errorcode 1.
with errorcode 1.
with errorcode 1.

with errorcode 1.
MPI_ABORT was invoked on rank 5388 in communicator world
with errorcode 1.

with errorcode 1.
with errorcode 1.
with errorcode 1.
MPI_ABORT was invoked on rank 4674 in communicator world
with errorcode 1.
with errorcode 1.
with errorcode 1.
with errorcode 1.
with errorcode 1.
with errorcode 1.


with errorcode 1.
with errorcode 1.
with errorcode 1.
with errorcode 1.
with errorcode 1.
with errorcode 1.
with errorcode 1.
with errorcode 1.
with errorcode 1.
with errorcode 1.

with errorcode 1.
with errorcode 1.
with errorcode 1.
with errorcode 1.
with errorcode 1.
with errorcode 1.


with errorcode 1.
with errorcode 1.

with errorcode 1.
with errorcode 1.
with errorcode 1.


with errorcode 1.


with errorcode 1.
with errorcode 1.

with errorcode 1.
with errorcode 1.
with errorcode 1.
with errorcode 1.
with errorcode 1.
with errorcode 1.
with errorcode 1.
with errorcode 1.
with errorcode 1.
with errorcode 1.
with errorcode 1.

with errorcode 1.

MPI_ABORT was invoked on rank 3003 in communicator world
MPI_ABORT was invoked on rank 5387 in communicator world
with errorcode 1.

with errorcode 1.
with errorcode 1.
with errorcode 1.
with errorcode 1.
with errorcode 1.
with errorcode 1.

with errorcode 1.
with errorcode 1.

with errorcode 1.
with errorcode 1.
with errorcode 1.
with errorcode 1.
with errorcode 1.
with errorcode 1.
with errorcode 1.
NOTE: invoking MPI_ABORT causes Open MPI to kill all MPI processes.

with errorcode 1.



with errorcode 1.

with errorcode 1.
with errorcode 1.
with errorcode 1.
with errorcode 1.


with errorcode 1.
with errorcode 1.


